<?xml version="1.0" encoding="UTF-8"?>

<!-- generated on 2026-04-10T03:24:37.861028+05:30 by Eclipse SUMO sumo 1.25.0
<sumoConfiguration xmlns:xsi="http://www.w3.org/2001/XMLSchema-instance" xsi:noNamespaceSchemaLocation="http://sumo.dlr.de/xsd/sumoConfiguration.xsd">

    <input>
        <net-file value="map_actuated.net.xml"/>
        <route-files value="./cross.rou.xml"/>
    </input>

    <output>
        <tripinfo-output value="actuated_tripinfo.xml"/>
    </output>

    <time>
        <step-length value="5"/>
    </time>

    <report>
        <no-warnings value="true"/>
    </report>

    <traci_server>
        <remote-port value="36087"/>
    </traci_server>

</sumoConfiguration>
-->

<tripinfos xmlns:xsi="http://www.w3.org/2001/XMLSchema-instance" xsi:noNamespaceSchemaLocation="http://sumo.dlr.de/xsd/tripinfo_file.xsd">
    <tripinfo id="SN_0" depart="0.00" departLane="53o_0" departPos="5.10" departSpeed="0.00" departDelay="0.00" arrival="105.00" arrivalLane="54i_0" arrivalPos="10.00" arrivalSpeed="11.17" duration="105.00" routeLength="1015.18" waitingTime="0.00" waitingCount="0" stopTime="0.00" timeLoss="28.87" rerouteNo="0" devices="tripinfo_SN_0" vType="cars" speedFactor="1.06" vaporized=""/>
    <tripinfo id="NS_0" depart="5.00" departLane="54o_0" departPos="5.10" departSpeed="0.00" departDelay="4.00" arrival="105.00" arrivalLane="53i_0" arrivalPos="10.00" arrivalSpeed="9.90" duration="100.00" routeLength="1015.18" waitingTime="0.00" waitingCount="0" stopTime="0.00" timeLoss="19.74" rerouteNo="0" devices="tripinfo_NS_0" vType="cars" speedFactor="0.94" vaporized=""/>
    <tripinfo id="WN_1" depart="25.00" departLane="51o_2" departPos="5.10" departSpeed="0.00" departDelay="1.00" arrival="120.00" arrivalLane="54i_0" arrivalPos="10.00" arrivalSpeed="10.29" duration="95.00" routeLength="987.90" waitingTime="0.00" waitingCount="0" stopTime="0.00" timeLoss="19.78" rerouteNo="0" devices="tripinfo_WN_1" vType="cars" speedFactor="0.94" vaporized=""/>
    <tripinfo id="WE_1" depart="20.00" departLane="51o_0" departPos="5.10" departSpeed="0.00" departDelay="4.00" arrival="125.00" arrivalLane="52i_0" arrivalPos="10.00" arrivalSpeed="8.84" duration="105.00" routeLength="987.90" waitingTime="0.00" waitingCount="0" stopTime="0.00" timeLoss="22.24" rerouteNo="0" devices="tripinfo_WE_1" vType="cars" speedFactor="0.83" vaporized=""/>
    <tripinfo id="SW_0" depart="30.00" departLane="53o_2" departPos="5.10" departSpeed="0.00" departDelay="1.00" arrival="125.00" arrivalLane="51i_0" arrivalPos="10.00" arrivalSpeed="14.30" duration="95.00" routeLength="1015.04" waitingTime="0.00" waitingCount="0" stopTime="0.00" timeLoss="19.09" rerouteNo="0" devices="tripinfo_SW_0" vType="cars" speedFactor="1.09" vaporized=""/>
    <tripinfo id="NE_0" depart="25.00" departLane="54o_2" departPos="5.10" departSpeed="0.00" departDelay="2.00" arrival="130.00" arrivalLane="52i_1" arrivalPos="10.00" arrivalSpeed="11.53" duration="105.00" routeLength="1015.04" waitingTime="0.00" waitingCount="0" stopTime="0.00" timeLoss="21.17" rerouteNo="0" devices="tripinfo_NE_0" vType="cars" speedFactor="0.89" vaporized=""/>
    <tripinfo id="SE_1" depart="35.00" departLane="53o_0" departPos="5.10" departSpeed="0.00" departDelay="4.00" arrival="130.00" arrivalLane="52i_2" arrivalPos="10.00" arrivalSpeed="11.15" duration="95.00" routeLength="987.90" waitingTime="0.00" waitingCount="0" stopTime="0.00" timeLoss="20.15" rerouteNo="0" devices="tripinfo_SE_1" vType="cars" speedFactor="1.03" vaporized=""/>
    <tripinfo id="NE_1" depart="35.00" departLane="54o_2" departPos="5.10" departSpeed="0.00" departDelay="1.00" arrival="130.00" arrivalLane="52i_0" arrivalPos="10.00" arrivalSpeed="14.07" duration="95.00" routeLength="1015.04" waitingTime="0.00" waitingCount="0" stopTime="0.00" timeLoss="18.05" rerouteNo="0" devices="tripinfo_NE_1" vType="cars" speedFactor="1.05" vaporized=""/>
    <tripinfo id="WE_2" depart="40.00" departLane="51o_0" departPos="5.10" departSpeed="0.00" departDelay="1.00" arrival="130.00" arrivalLane="52i_0" arrivalPos="10.00" arrivalSpeed="11.50" duration="90.00" routeLength="987.90" waitingTime="0.00" waitingCount="0" stopTime="0.00" timeLoss="20.10" rerouteNo="0" devices="tripinfo_WE_2" vType="cars" speedFactor="1.12" vaporized=""/>
    <tripinfo id="EW_1" depart="30.00" departLane="52o_0" departPos="5.10" departSpeed="0.00" departDelay="4.00" arrival="135.00" arrivalLane="51i_0" arrivalPos="10.00" arrivalSpeed="7.80" duration="105.00" routeLength="987.90" waitingTime="0.00" waitingCount="0" stopTime="0.00" timeLoss="24.88" rerouteNo="0" devices="tripinfo_EW_1" vType="cars" speedFactor="0.86" vaporized=""/>
    <tripinfo id="WE_3" depart="45.00" departLane="51o_0" departPos="5.10" departSpeed="0.00" departDelay="3.00" arrival="140.00" arrivalLane="52i_0" arrivalPos="10.00" arrivalSpeed="10.57" duration="95.00" routeLength="1015.18" waitingTime="0.00" waitingCount="0" stopTime="0.00" timeLoss="15.73" rerouteNo="0" devices="tripinfo_WE_3" vType="cars" speedFactor="0.99" vaporized=""/>
    <tripinfo id="SN_1" depart="45.00" departLane="53o_0" departPos="5.10" departSpeed="0.00" departDelay="3.00" arrival="140.00" arrivalLane="54i_0" arrivalPos="10.00" arrivalSpeed="8.92" duration="95.00" routeLength="987.90" waitingTime="0.00" waitingCount="0" stopTime="0.00" timeLoss="19.49" rerouteNo="0" devices="tripinfo_SN_1" vType="cars" speedFactor="0.93" vaporized=""/>
    <tripinfo id="EW_0" depart="5.00" departLane="52o_0" departPos="5.10" departSpeed="0.00" departDelay="2.00" arrival="145.00" arrivalLane="51i_0" arrivalPos="10.00" arrivalSpeed="13.59" duration="140.00" routeLength="1015.18" waitingTime="20.00" waitingCount="2" stopTime="0.00" timeLoss="62.25" rerouteNo="0" devices="tripinfo_EW_0" vType="cars" speedFactor="1.01" vaporized=""/>
    <tripinfo id="WE_0" depart="10.00" departLane="51o_0" departPos="5.10" departSpeed="0.00" departDelay="0.00" arrival="145.00" arrivalLane="52i_0" arrivalPos="10.00" arrivalSpeed="9.81" duration="135.00" routeLength="1015.18" waitingTime="20.00" waitingCount="2" stopTime="0.00" timeLoss="58.77" rerouteNo="0" devices="tripinfo_WE_0" vType="cars" speedFactor="1.03" vaporized=""/>
    <tripinfo id="EW_2" depart="55.00" departLane="52o_0" departPos="5.10" departSpeed="0.00" departDelay="2.00" arrival="145.00" arrivalLane="51i_1" arrivalPos="10.00" arrivalSpeed="12.34" duration="90.00" routeLength="987.90" waitingTime="0.00" waitingCount="0" stopTime="0.00" timeLoss="20.26" rerouteNo="0" devices="tripinfo_EW_2" vType="cars" speedFactor="1.16" vaporized=""/>
    <tripinfo id="WN_0" depart="10.00" departLane="51o_2" departPos="5.10" departSpeed="0.00" departDelay="2.00" arrival="150.00" arrivalLane="54i_0" arrivalPos="10.00" arrivalSpeed="10.29" duration="140.00" routeLength="1015.04" waitingTime="25.00" waitingCount="2" stopTime="0.00" timeLoss="66.92" rerouteNo="0" devices="tripinfo_WN_0" vType="cars" speedFactor="1.08" vaporized=""/>
    <tripinfo id="ES_0" depart="55.00" departLane="52o_2" departPos="5.10" departSpeed="0.00" departDelay="0.00" arrival="150.00" arrivalLane="53i_0" arrivalPos="10.00" arrivalSpeed="10.88" duration="95.00" routeLength="1015.04" waitingTime="0.00" waitingCount="0" stopTime="0.00" timeLoss="19.16" rerouteNo="0" devices="tripinfo_ES_0" vType="cars" speedFactor="1.02" vaporized=""/>
    <tripinfo id="SN_2" depart="50.00" departLane="53o_0" departPos="5.10" departSpeed="0.00" departDelay="3.00" arrival="155.00" arrivalLane="54i_0" arrivalPos="10.00" arrivalSpeed="9.41" duration="105.00" routeLength="987.90" waitingTime="0.00" waitingCount="0" stopTime="0.00" timeLoss="23.73" rerouteNo="0" devices="tripinfo_SN_2" vType="cars" speedFactor="0.88" vaporized=""/>
    <tripinfo id="SE_0" depart="25.00" departLane="53o_0" departPos="5.10" departSpeed="0.00" departDelay="4.00" arrival="165.00" arrivalLane="52i_0" arrivalPos="10.00" arrivalSpeed="9.71" duration="140.00" routeLength="996.93" waitingTime="30.00" waitingCount="3" stopTime="0.00" timeLoss="68.23" rerouteNo="0" devices="tripinfo_SE_0" vType="cars" speedFactor="1.05" vaporized=""/>
    <tripinfo id="EW_3" depart="70.00" departLane="52o_0" departPos="5.10" departSpeed="0.00" departDelay="0.00" arrival="165.00" arrivalLane="51i_0" arrivalPos="10.00" arrivalSpeed="9.39" duration="95.00" routeLength="987.90" waitingTime="0.00" waitingCount="0" stopTime="0.00" timeLoss="21.47" rerouteNo="0" devices="tripinfo_EW_3" vType="cars" speedFactor="1.01" vaporized=""/>
    <tripinfo id="NW_0" depart="75.00" departLane="54o_0" departPos="5.10" departSpeed="0.00" departDelay="4.00" arrival="175.00" arrivalLane="51i_0" arrivalPos="10.00" arrivalSpeed="10.48" duration="100.00" routeLength="996.93" waitingTime="0.00" waitingCount="0" stopTime="0.00" timeLoss="22.62" rerouteNo="0" devices="tripinfo_NW_0" vType="cars" speedFactor="0.97" vaporized=""/>
    <tripinfo id="SN_3" depart="75.00" departLane="53o_0" departPos="5.10" departSpeed="0.00" departDelay="2.00" arrival="180.00" arrivalLane="54i_0" arrivalPos="10.00" arrivalSpeed="8.06" duration="105.00" routeLength="1015.18" waitingTime="0.00" waitingCount="0" stopTime="0.00" timeLoss="22.99" rerouteNo="0" devices="tripinfo_SN_3" vType="cars" speedFactor="0.89" vaporized=""/>
    <tripinfo id="EW_4" depart="95.00" departLane="52o_0" departPos="5.10" departSpeed="0.00" departDelay="2.00" arrival="180.00" arrivalLane="51i_1" arrivalPos="10.00" arrivalSpeed="16.34" duration="85.00" routeLength="987.90" waitingTime="0.00" waitingCount="0" stopTime="0.00" timeLoss="15.22" rerouteNo="0" devices="tripinfo_EW_4" vType="cars" speedFactor="1.18" vaporized=""/>
    <tripinfo id="NE_2" depart="55.00" departLane="54o_2" departPos="5.10" departSpeed="0.00" departDelay="4.00" arrival="190.00" arrivalLane="52i_0" arrivalPos="10.00" arrivalSpeed="8.92" duration="135.00" routeLength="1015.04" waitingTime="15.00" waitingCount="2" stopTime="0.00" timeLoss="54.84" rerouteNo="0" devices="tripinfo_NE_2" vType="cars" speedFactor="0.94" vaporized=""/>
    <tripinfo id="EN_1" depart="85.00" departLane="52o_0" departPos="5.10" departSpeed="0.00" departDelay="2.00" arrival="190.00" arrivalLane="54i_0" arrivalPos="10.00" arrivalSpeed="8.05" duration="105.00" routeLength="987.90" waitingTime="0.00" waitingCount="0" stopTime="0.00" timeLoss="24.57" rerouteNo="0" devices="tripinfo_EN_1" vType="cars" speedFactor="0.87" vaporized=""/>
    <tripinfo id="NS_3" depart="100.00" departLane="54o_0" departPos="5.10" departSpeed="0.00" departDelay="6.00" arrival="190.00" arrivalLane="53i_0" arrivalPos="10.00" arrivalSpeed="11.66" duration="90.00" routeLength="987.90" waitingTime="0.00" waitingCount="0" stopTime="0.00" timeLoss="21.00" rerouteNo="0" devices="tripinfo_NS_3" vType="cars" speedFactor="1.15" vaporized=""/>
    <tripinfo id="WN_3" depart="100.00" departLane="51o_2" departPos="5.10" departSpeed="0.00" departDelay="5.00" arrival="190.00" arrivalLane="54i_1" arrivalPos="10.00" arrivalSpeed="11.05" duration="90.00" routeLength="987.90" waitingTime="0.00" waitingCount="0" stopTime="0.00" timeLoss="20.67" rerouteNo="0" devices="tripinfo_WN_3" vType="cars" speedFactor="1.17" vaporized=""/>
    <tripinfo id="NW_1" depart="80.00" departLane="54o_0" departPos="5.10" departSpeed="0.00" departDelay="3.00" arrival="195.00" arrivalLane="51i_0" arrivalPos="10.00" arrivalSpeed="8.74" duration="115.00" routeLength="996.93" waitingTime="0.00" waitingCount="0" stopTime="0.00" timeLoss="27.58" rerouteNo="0" devices="tripinfo_NW_1" vType="cars" speedFactor="0.83" vaporized=""/>
    <tripinfo id="WN_2" depart="95.00" departLane="51o_2" departPos="5.10" departSpeed="0.00" departDelay="3.00" arrival="200.00" arrivalLane="54i_1" arrivalPos="10.00" arrivalSpeed="11.61" duration="105.00" routeLength="1015.04" waitingTime="5.00" waitingCount="1" stopTime="0.00" timeLoss="34.70" rerouteNo="0" devices="tripinfo_WN_2" vType="cars" speedFactor="1.13" vaporized=""/>
    <tripinfo id="NW_2" depart="105.00" departLane="54o_0" departPos="5.10" departSpeed="0.00" departDelay="11.00" arrival="200.00" arrivalLane="51i_0" arrivalPos="10.00" arrivalSpeed="10.52" duration="95.00" routeLength="987.90" waitingTime="0.00" waitingCount="0" stopTime="0.00" timeLoss="21.73" rerouteNo="0" devices="tripinfo_NW_2" vType="cars" speedFactor="1.01" vaporized=""/>
    <tripinfo id="EN_0" depart="50.00" departLane="52o_0" departPos="5.10" departSpeed="0.00" departDelay="2.00" arrival="205.00" arrivalLane="54i_0" arrivalPos="10.00" arrivalSpeed="10.03" duration="155.00" routeLength="996.93" waitingTime="45.00" waitingCount="1" stopTime="0.00" timeLoss="76.48" rerouteNo="0" devices="tripinfo_EN_0" vType="cars" speedFactor="0.94" vaporized=""/>
    <tripinfo id="WE_4" depart="85.00" departLane="51o_0" departPos="5.10" departSpeed="0.00" departDelay="1.00" arrival="210.00" arrivalLane="52i_0" arrivalPos="10.00" arrivalSpeed="9.57" duration="125.00" routeLength="1015.18" waitingTime="5.00" waitingCount="1" stopTime="0.00" timeLoss="43.06" rerouteNo="0" devices="tripinfo_WE_4" vType="cars" speedFactor="0.92" vaporized=""/>
    <tripinfo id="EW_5" depart="125.00" departLane="52o_0" departPos="5.10" departSpeed="0.00" departDelay="3.00" arrival="210.00" arrivalLane="51i_0" arrivalPos="10.00" arrivalSpeed="11.23" duration="85.00" routeLength="987.90" waitingTime="0.00" waitingCount="0" stopTime="0.00" timeLoss="16.78" rerouteNo="0" devices="tripinfo_EW_5" vType="cars" speedFactor="1.10" vaporized=""/>
    <tripinfo id="WN_4" depart="115.00" departLane="51o_2" departPos="5.10" departSpeed="0.00" departDelay="2.00" arrival="215.00" arrivalLane="54i_0" arrivalPos="10.00" arrivalSpeed="10.70" duration="100.00" routeLength="1015.04" waitingTime="0.00" waitingCount="0" stopTime="0.00" timeLoss="21.93" rerouteNo="0" devices="tripinfo_WN_4" vType="cars" speedFactor="0.99" vaporized=""/>
    <tripinfo id="WN_5" depart="120.00" departLane="51o_2" departPos="5.10" departSpeed="0.00" departDelay="4.00" arrival="220.00" arrivalLane="54i_0" arrivalPos="10.00" arrivalSpeed="10.70" duration="100.00" routeLength="1015.04" waitingTime="0.00" waitingCount="0" stopTime="0.00" timeLoss="20.24" rerouteNo="0" devices="tripinfo_WN_5" vType="cars" speedFactor="0.97" vaporized=""/>
    <tripinfo id="SN_4" depart="120.00" departLane="53o_0" departPos="5.10" departSpeed="0.00" departDelay="3.00" arrival="225.00" arrivalLane="54i_0" arrivalPos="10.00" arrivalSpeed="12.99" duration="105.00" routeLength="1015.18" waitingTime="5.00" waitingCount="1" stopTime="0.00" timeLoss="33.34" rerouteNo="0" devices="tripinfo_SN_4" vType="cars" speedFactor="1.18" vaporized=""/>
    <tripinfo id="NS_1" depart="95.00" departLane="54o_0" departPos="5.10" departSpeed="0.00" departDelay="4.00" arrival="235.00" arrivalLane="53i_0" arrivalPos="10.00" arrivalSpeed="12.40" duration="140.00" routeLength="1015.18" waitingTime="20.00" waitingCount="2" stopTime="0.00" timeLoss="59.59" rerouteNo="0" devices="tripinfo_NS_1" vType="cars" speedFactor="0.95" vaporized=""/>
    <tripinfo id="NS_2" depart="95.00" departLane="54o_1" departPos="5.10" departSpeed="0.00" departDelay="3.00" arrival="235.00" arrivalLane="53i_0" arrivalPos="10.00" arrivalSpeed="9.44" duration="140.00" routeLength="1015.18" waitingTime="10.00" waitingCount="2" stopTime="0.00" timeLoss="60.16" rerouteNo="0" devices="tripinfo_NS_2" vType="cars" speedFactor="0.93" vaporized=""/>
    <tripinfo id="SN_5" depart="130.00" departLane="53o_0" departPos="5.10" departSpeed="0.00" departDelay="0.00" arrival="235.00" arrivalLane="54i_0" arrivalPos="10.00" arrivalSpeed="9.39" duration="105.00" routeLength="1015.18" waitingTime="0.00" waitingCount="0" stopTime="0.00" timeLoss="22.98" rerouteNo="0" devices="tripinfo_SN_5" vType="cars" speedFactor="0.90" vaporized=""/>
    <tripinfo id="SN_6" depart="135.00" departLane="53o_0" departPos="5.10" departSpeed="0.00" departDelay="1.00" arrival="235.00" arrivalLane="54i_0" arrivalPos="10.00" arrivalSpeed="12.79" duration="100.00" routeLength="1015.18" waitingTime="0.00" waitingCount="0" stopTime="0.00" timeLoss="21.87" rerouteNo="0" devices="tripinfo_SN_6" vType="cars" speedFactor="1.03" vaporized=""/>
    <tripinfo id="EN_3" depart="150.00" departLane="52o_0" departPos="5.10" departSpeed="0.00" departDelay="1.00" arrival="245.00" arrivalLane="54i_0" arrivalPos="10.00" arrivalSpeed="9.86" duration="95.00" routeLength="987.90" waitingTime="0.00" waitingCount="0" stopTime="0.00" timeLoss="21.39" rerouteNo="0" devices="tripinfo_EN_3" vType="cars" speedFactor="1.04" vaporized=""/>
    <tripinfo id="EW_6" depart="160.00" departLane="52o_0" departPos="5.10" departSpeed="0.00" departDelay="3.00" arrival="245.00" arrivalLane="51i_0" arrivalPos="10.00" arrivalSpeed="10.22" duration="85.00" routeLength="987.90" waitingTime="0.00" waitingCount="0" stopTime="0.00" timeLoss="15.69" rerouteNo="0" devices="tripinfo_EW_6" vType="cars" speedFactor="1.09" vaporized=""/>
    <tripinfo id="EN_2" depart="115.00" departLane="52o_0" departPos="5.10" departSpeed="0.00" departDelay="1.00" arrival="260.00" arrivalLane="54i_0" arrivalPos="10.00" arrivalSpeed="9.94" duration="145.00" routeLength="996.93" waitingTime="25.00" waitingCount="3" stopTime="0.00" timeLoss="68.80" rerouteNo="0" devices="tripinfo_EN_2" vType="cars" speedFactor="1.02" vaporized=""/>
    <tripinfo id="WE_5" depart="140.00" departLane="51o_0" departPos="5.10" departSpeed="0.00" departDelay="0.00" arrival="260.00" arrivalLane="52i_0" arrivalPos="10.00" arrivalSpeed="8.94" duration="120.00" routeLength="1015.18" waitingTime="10.00" waitingCount="1" stopTime="0.00" timeLoss="42.39" rerouteNo="0" devices="tripinfo_WE_5" vType="cars" speedFactor="0.96" vaporized=""/>
    <tripinfo id="WN_6" depart="150.00" departLane="51o_2" departPos="5.10" departSpeed="0.00" departDelay="3.00" arrival="260.00" arrivalLane="54i_1" arrivalPos="10.00" arrivalSpeed="14.73" duration="110.00" routeLength="1015.04" waitingTime="5.00" waitingCount="1" stopTime="0.00" timeLoss="34.61" rerouteNo="0" devices="tripinfo_WN_6" vType="cars" speedFactor="1.09" vaporized=""/>
    <tripinfo id="NS_5" depart="160.00" departLane="54o_0" departPos="5.10" departSpeed="0.00" departDelay="1.00" arrival="265.00" arrivalLane="53i_0" arrivalPos="10.00" arrivalSpeed="11.92" duration="105.00" routeLength="987.90" waitingTime="0.00" waitingCount="0" stopTime="0.00" timeLoss="25.08" rerouteNo="0" devices="tripinfo_NS_5" vType="cars" speedFactor="0.90" vaporized=""/>
    <tripinfo id="NW_4" depart="175.00" departLane="54o_0" departPos="5.10" departSpeed="0.00" departDelay="4.00" arrival="265.00" arrivalLane="51i_0" arrivalPos="10.00" arrivalSpeed="10.44" duration="90.00" routeLength="987.90" waitingTime="0.00" waitingCount="0" stopTime="0.00" timeLoss="17.24" rerouteNo="0" devices="tripinfo_NW_4" vType="cars" speedFactor="1.02" vaporized=""/>
    <tripinfo id="WE_6" depart="165.00" departLane="51o_0" departPos="5.10" departSpeed="0.00" departDelay="4.00" arrival="270.00" arrivalLane="52i_0" arrivalPos="10.00" arrivalSpeed="8.82" duration="105.00" routeLength="1015.18" waitingTime="0.00" waitingCount="0" stopTime="0.00" timeLoss="20.98" rerouteNo="0" devices="tripinfo_WE_6" vType="cars" speedFactor="0.85" vaporized=""/>
    <tripinfo id="ES_1" depart="175.00" departLane="52o_2" departPos="5.10" departSpeed="0.00" departDelay="3.00" arrival="270.00" arrivalLane="53i_0" arrivalPos="10.00" arrivalSpeed="10.12" duration="95.00" routeLength="1015.04" waitingTime="0.00" waitingCount="0" stopTime="0.00" timeLoss="18.99" rerouteNo="0" devices="tripinfo_ES_1" vType="cars" speedFactor="1.00" vaporized=""/>
    <tripinfo id="EW_8" depart="180.00" departLane="52o_0" departPos="5.10" departSpeed="0.00" departDelay="4.00" arrival="270.00" arrivalLane="51i_1" arrivalPos="10.00" arrivalSpeed="11.55" duration="90.00" routeLength="987.90" waitingTime="0.00" waitingCount="0" stopTime="0.00" timeLoss="20.50" rerouteNo="0" devices="tripinfo_EW_8" vType="cars" speedFactor="1.14" vaporized=""/>
    <tripinfo id="NW_3" depart="170.00" departLane="54o_0" departPos="5.10" departSpeed="0.00" departDelay="4.00" arrival="275.00" arrivalLane="51i_0" arrivalPos="10.00" arrivalSpeed="12.53" duration="105.00" routeLength="987.90" waitingTime="0.00" waitingCount="0" stopTime="0.00" timeLoss="22.98" rerouteNo="0" devices="tripinfo_NW_3" vType="cars" speedFactor="0.85" vaporized=""/>
    <tripinfo id="SN_8" depart="175.00" departLane="53o_0" departPos="5.10" departSpeed="0.00" departDelay="1.00" arrival="275.00" arrivalLane="54i_0" arrivalPos="10.00" arrivalSpeed="9.72" duration="100.00" routeLength="987.90" waitingTime="0.00" waitingCount="0" stopTime="0.00" timeLoss="22.19" rerouteNo="0" devices="tripinfo_SN_8" vType="cars" speedFactor="0.90" vaporized=""/>
    <tripinfo id="NS_4" depart="155.00" departLane="54o_0" departPos="5.10" departSpeed="0.00" departDelay="3.00" arrival="285.00" arrivalLane="53i_0" arrivalPos="10.00" arrivalSpeed="14.06" duration="130.00" routeLength="1015.18" waitingTime="10.00" waitingCount="1" stopTime="0.00" timeLoss="53.11" rerouteNo="0" devices="tripinfo_NS_4" vType="cars" speedFactor="1.04" vaporized=""/>
    <tripinfo id="SN_7" depart="160.00" departLane="53o_0" departPos="5.10" departSpeed="0.00" departDelay="3.00" arrival="285.00" arrivalLane="54i_0" arrivalPos="10.00" arrivalSpeed="10.64" duration="125.00" routeLength="1015.18" waitingTime="15.00" waitingCount="1" stopTime="0.00" timeLoss="46.45" rerouteNo="0" devices="tripinfo_SN_7" vType="cars" speedFactor="1.00" vaporized=""/>
    <tripinfo id="EW_10" depart="190.00" departLane="52o_0" departPos="5.10" departSpeed="0.00" departDelay="1.00" arrival="285.00" arrivalLane="51i_0" arrivalPos="10.00" arrivalSpeed="10.23" duration="95.00" routeLength="987.90" waitingTime="0.00" waitingCount="0" stopTime="0.00" timeLoss="21.35" rerouteNo="0" devices="tripinfo_EW_10" vType="cars" speedFactor="0.97" vaporized=""/>
    <tripinfo id="NE_3" depart="175.00" departLane="54o_2" departPos="5.10" departSpeed="0.00" departDelay="3.00" arrival="290.00" arrivalLane="52i_0" arrivalPos="10.00" arrivalSpeed="9.11" duration="115.00" routeLength="1015.04" waitingTime="5.00" waitingCount="1" stopTime="0.00" timeLoss="37.32" rerouteNo="0" devices="tripinfo_NE_3" vType="cars" speedFactor="1.00" vaporized=""/>
    <tripinfo id="SW_1" depart="160.00" departLane="53o_2" departPos="5.10" departSpeed="0.00" departDelay="0.00" arrival="295.00" arrivalLane="51i_0" arrivalPos="10.00" arrivalSpeed="8.04" duration="135.00" routeLength="1015.04" waitingTime="10.00" waitingCount="2" stopTime="0.00" timeLoss="50.85" rerouteNo="0" devices="tripinfo_SW_1" vType="cars" speedFactor="0.88" vaporized=""/>
    <tripinfo id="EN_4" depart="205.00" departLane="52o_0" departPos="5.10" departSpeed="0.00" departDelay="1.00" arrival="295.00" arrivalLane="54i_0" arrivalPos="10.00" arrivalSpeed="10.47" duration="90.00" routeLength="987.90" waitingTime="0.00" waitingCount="0" stopTime="0.00" timeLoss="16.45" rerouteNo="0" devices="tripinfo_EN_4" vType="cars" speedFactor="0.99" vaporized=""/>
    <tripinfo id="EW_11" depart="200.00" departLane="52o_0" departPos="5.10" departSpeed="0.00" departDelay="1.00" arrival="305.00" arrivalLane="51i_0" arrivalPos="10.00" arrivalSpeed="10.04" duration="105.00" routeLength="987.90" waitingTime="5.00" waitingCount="1" stopTime="0.00" timeLoss="31.66" rerouteNo="0" devices="tripinfo_EW_11" vType="cars" speedFactor="1.02" vaporized=""/>
    <tripinfo id="EN_5" depart="210.00" departLane="52o_0" departPos="5.10" departSpeed="0.00" departDelay="2.00" arrival="305.00" arrivalLane="54i_0" arrivalPos="10.00" arrivalSpeed="10.08" duration="95.00" routeLength="987.90" waitingTime="0.00" waitingCount="0" stopTime="0.00" timeLoss="16.49" rerouteNo="0" devices="tripinfo_EN_5" vType="cars" speedFactor="0.91" vaporized=""/>
    <tripinfo id="WE_10" depart="215.00" departLane="51o_0" departPos="5.10" departSpeed="0.00" departDelay="1.00" arrival="305.00" arrivalLane="52i_0" arrivalPos="10.00" arrivalSpeed="11.01" duration="90.00" routeLength="987.90" waitingTime="0.00" waitingCount="0" stopTime="0.00" timeLoss="17.04" rerouteNo="0" devices="tripinfo_WE_10" vType="cars" speedFactor="1.02" vaporized=""/>
    <tripinfo id="WE_7" depart="175.00" departLane="51o_0" departPos="5.10" departSpeed="0.00" departDelay="4.00" arrival="310.00" arrivalLane="52i_0" arrivalPos="10.00" arrivalSpeed="12.44" duration="135.00" routeLength="1015.18" waitingTime="25.00" waitingCount="2" stopTime="0.00" timeLoss="62.53" rerouteNo="0" devices="tripinfo_WE_7" vType="cars" speedFactor="1.17" vaporized=""/>
    <tripinfo id="EW_7" depart="175.00" departLane="52o_0" departPos="5.10" departSpeed="0.00" departDelay="3.00" arrival="310.00" arrivalLane="51i_0" arrivalPos="10.00" arrivalSpeed="11.60" duration="135.00" routeLength="1015.18" waitingTime="35.00" waitingCount="1" stopTime="0.00" timeLoss="62.91" rerouteNo="0" devices="tripinfo_EW_7" vType="cars" speedFactor="1.10" vaporized=""/>
    <tripinfo id="WN_8" depart="210.00" departLane="51o_2" departPos="5.10" departSpeed="0.00" departDelay="2.00" arrival="310.00" arrivalLane="54i_0" arrivalPos="10.00" arrivalSpeed="9.13" duration="100.00" routeLength="987.90" waitingTime="0.00" waitingCount="0" stopTime="0.00" timeLoss="24.07" rerouteNo="0" devices="tripinfo_WN_8" vType="cars" speedFactor="0.91" vaporized=""/>
    <tripinfo id="EW_9" depart="180.00" departLane="52o_1" departPos="5.10" departSpeed="0.00" departDelay="0.00" arrival="315.00" arrivalLane="51i_0" arrivalPos="10.00" arrivalSpeed="11.14" duration="135.00" routeLength="1015.18" waitingTime="25.00" waitingCount="2" stopTime="0.00" timeLoss="59.55" rerouteNo="0" devices="tripinfo_EW_9" vType="cars" speedFactor="1.02" vaporized=""/>
    <tripinfo id="WE_8" depart="200.00" departLane="51o_0" departPos="5.10" departSpeed="0.00" departDelay="3.00" arrival="315.00" arrivalLane="52i_0" arrivalPos="10.00" arrivalSpeed="11.48" duration="115.00" routeLength="1015.18" waitingTime="5.00" waitingCount="1" stopTime="0.00" timeLoss="40.19" rerouteNo="0" devices="tripinfo_WE_8" vType="cars" speedFactor="1.08" vaporized=""/>
    <tripinfo id="WN_9" depart="225.00" departLane="51o_2" departPos="5.10" departSpeed="0.00" departDelay="3.00" arrival="320.00" arrivalLane="54i_0" arrivalPos="10.00" arrivalSpeed="10.08" duration="95.00" routeLength="1015.04" waitingTime="0.00" waitingCount="0" stopTime="0.00" timeLoss="17.38" rerouteNo="0" devices="tripinfo_WN_9" vType="cars" speedFactor="1.02" vaporized=""/>
    <tripinfo id="WN_7" depart="200.00" departLane="51o_2" departPos="5.10" departSpeed="0.00" departDelay="3.00" arrival="325.00" arrivalLane="54i_0" arrivalPos="10.00" arrivalSpeed="15.66" duration="125.00" routeLength="1014.94" waitingTime="20.00" waitingCount="3" stopTime="0.00" timeLoss="53.71" rerouteNo="0" devices="tripinfo_WN_7" vType="cars" speedFactor="1.12" vaporized=""/>
    <tripinfo id="ES_2" depart="230.00" departLane="52o_2" departPos="5.10" departSpeed="0.00" departDelay="1.00" arrival="325.00" arrivalLane="53i_0" arrivalPos="10.00" arrivalSpeed="10.17" duration="95.00" routeLength="1015.04" waitingTime="0.00" waitingCount="0" stopTime="0.00" timeLoss="21.55" rerouteNo="0" devices="tripinfo_ES_2" vType="cars" speedFactor="1.06" vaporized=""/>
    <tripinfo id="EW_14" depart="275.00" departLane="52o_0" departPos="5.10" departSpeed="0.00" departDelay="2.00" arrival="325.00" arrivalLane="51i_0" arrivalPos="10.00" arrivalSpeed="16.46" duration="50.00" routeLength="1015.08" waitingTime="0.00" waitingCount="0" stopTime="0.00" timeLoss="12.11" rerouteNo="0" devices="tripinfo_EW_14" vType="cars" speedFactor="1.00" vaporized=""/>
    <tripinfo id="WN_10" depart="230.00" departLane="51o_2" departPos="5.10" departSpeed="0.00" departDelay="7.00" arrival="330.00" arrivalLane="54i_0" arrivalPos="10.00" arrivalSpeed="13.53" duration="100.00" routeLength="1015.04" waitingTime="0.00" waitingCount="0" stopTime="0.00" timeLoss="20.06" rerouteNo="0" devices="tripinfo_WN_10" vType="cars" speedFactor="0.97" vaporized=""/>
    <tripinfo id="WE_11" depart="240.00" departLane="51o_0" departPos="5.10" departSpeed="0.00" departDelay="2.00" arrival="335.00" arrivalLane="52i_0" arrivalPos="10.00" arrivalSpeed="13.43" duration="95.00" routeLength="987.90" waitingTime="0.00" waitingCount="0" stopTime="0.00" timeLoss="21.29" rerouteNo="0" devices="tripinfo_WE_11" vType="cars" speedFactor="1.03" vaporized=""/>
    <tripinfo id="EN_6" depart="245.00" departLane="52o_0" departPos="5.10" departSpeed="0.00" departDelay="8.00" arrival="340.00" arrivalLane="54i_0" arrivalPos="10.00" arrivalSpeed="9.98" duration="95.00" routeLength="987.90" waitingTime="0.00" waitingCount="0" stopTime="0.00" timeLoss="21.04" rerouteNo="0" devices="tripinfo_EN_6" vType="cars" speedFactor="0.98" vaporized=""/>
    <tripinfo id="SE_2" depart="210.00" departLane="53o_0" departPos="5.10" departSpeed="0.00" departDelay="1.00" arrival="345.00" arrivalLane="52i_0" arrivalPos="10.00" arrivalSpeed="13.30" duration="135.00" routeLength="996.93" waitingTime="15.00" waitingCount="2" stopTime="0.00" timeLoss="59.61" rerouteNo="0" devices="tripinfo_SE_2" vType="cars" speedFactor="1.04" vaporized=""/>
    <tripinfo id="SN_9" depart="245.00" departLane="53o_0" departPos="5.10" departSpeed="0.00" departDelay="3.00" arrival="345.00" arrivalLane="54i_1" arrivalPos="10.00" arrivalSpeed="11.56" duration="100.00" routeLength="1015.18" waitingTime="0.00" waitingCount="0" stopTime="0.00" timeLoss="21.06" rerouteNo="0" devices="tripinfo_SN_9" vType="cars" speedFactor="0.98" vaporized=""/>