<?xml version="1.0" encoding="UTF-8"?>

<!-- generated on 2026-04-09T14:37:53.449443+05:30 by Eclipse SUMO GUI 1.26.0
<sumoConfiguration xmlns:xsi="http://www.w3.org/2001/XMLSchema-instance" xsi:noNamespaceSchemaLocation="http://sumo.dlr.de/xsd/sumoConfiguration.xsd">

    <input>
        <net-file value="C:\Users\VICTUS\Documents\AI_Project\Intelligent-Traffic-Signal-Control-using-Reinforcement-Learning\Temp\VS_code\cross.net.xml"/>
        <route-files value="C:\Users\VICTUS\Documents\AI_Project\Intelligent-Traffic-Signal-Control-using-Reinforcement-Learning\Temp\VS_code\cross.rou.xml"/>
        <additional-files value="C:\Users\VICTUS\Documents\AI_Project\Intelligent-Traffic-Signal-Control-using-Reinforcement-Learning\Temp\VS_code\cross.add.xml"/>
    </input>

    <output>
        <tripinfo-output value="C:\Users\VICTUS\Documents\AI_Project\Intelligent-Traffic-Signal-Control-using-Reinforcement-Learning\Temp\VS_code\tripinfo1.xml"/>
    </output>

    <time>
        <begin value="0"/>
    </time>

    <processing>
        <waiting-time-memory value="1000"/>
    </processing>

    <report>
        <verbose value="true"/>
        <no-step-log value="true"/>
    </report>

</sumoConfiguration>
-->

<detector xmlns:xsi="http://www.w3.org/2001/XMLSchema-instance" xsi:noNamespaceSchemaLocation="http://sumo.dlr.de/xsd/det_e1_file.xsd">
    <interval begin="0.00" end="30.00" id="0" nVehContrib="0" flow="0.00" occupancy="0.00" speed="-1.00" harmonicMeanSpeed="-1.00" length="-1.00" nVehEntered="0"/>
    <interval begin="30.00" end="60.00" id="0" nVehContrib="0" flow="0.00" occupancy="0.00" speed="-1.00" harmonicMeanSpeed="-1.00" length="-1.00" nVehEntered="0"/>
    <interval begin="60.00" end="90.00" id="0" nVehContrib="0" flow="0.00" occupancy="0.00" speed="-1.00" harmonicMeanSpeed="-1.00" length="-1.00" nVehEntered="0"/>
    <interval begin="90.00" end="120.00" id="0" nVehContrib="0" flow="0.00" occupancy="0.00" speed="-1.00" harmonicMeanSpeed="-1.00" length="-1.00" nVehEntered="0"/>
    <interval begin="120.00" end="150.00" id="0" nVehContrib="1" flow="120.00" occupancy="1.08" speed="15.38" harmonicMeanSpeed="15.38" length="5.00" nVehEntered="1"/>
    <interval begin="150.00" end="180.00" id="0" nVehContrib="0" flow="0.00" occupancy="0.00" speed="-1.00" harmonicMeanSpeed="-1.00" length="-1.00" nVehEntered="0"/>
    <interval begin="180.00" end="210.00" id="0" nVehContrib="0" flow="0.00" occupancy="0.00" speed="-1.00" harmonicMeanSpeed="-1.00" length="-1.00" nVehEntered="0"/>
    <interval begin="210.00" end="240.00" id="0" nVehContrib="0" flow="0.00" occupancy="0.00" speed="-1.00" harmonicMeanSpeed="-1.00" length="-1.00" nVehEntered="0"/>
    <interval begin="240.00" end="270.00" id="0" nVehContrib="1" flow="120.00" occupancy="1.16" speed="14.35" harmonicMeanSpeed="14.35" length="5.00" nVehEntered="1"/>
    <interval begin="270.00" end="300.00" id="0" nVehContrib="1" flow="120.00" occupancy="3.96" speed="4.20" harmonicMeanSpeed="4.20" length="5.00" nVehEntered="1"/>
    <interval begin="300.00" end="330.00" id="0" nVehContrib="1" flow="120.00" occupancy="1.70" speed="9.82" harmonicMeanSpeed="9.82" length="5.00" nVehEntered="1"/>
    <interval begin="330.00" end="360.00" id="0" nVehContrib="0" flow="0.00" occupancy="0.00" speed="-1.00" harmonicMeanSpeed="-1.00" length="-1.00" nVehEntered="0"/>
    <interval begin="360.00" end="390.00" id="0" nVehContrib="0" flow="0.00" occupancy="0.00" speed="-1.00" harmonicMeanSpeed="-1.00" length="-1.00" nVehEntered="0"/>
    <interval begin="390.00" end="420.00" id="0" nVehContrib="2" flow="240.00" occupancy="5.22" speed="9.73" harmonicMeanSpeed="6.38" length="5.00" nVehEntered="2"/>
    <interval begin="420.00" end="450.00" id="0" nVehContrib="1" flow="120.00" occupancy="1.80" speed="9.28" harmonicMeanSpeed="9.28" length="5.00" nVehEntered="1"/>
    <interval begin="450.00" end="480.00" id="0" nVehContrib="1" flow="120.00" occupancy="5.47" speed="3.05" harmonicMeanSpeed="3.05" length="5.00" nVehEntered="1"/>
    <interval begin="480.00" end="510.00" id="0" nVehContrib="1" flow="120.00" occupancy="1.02" speed="16.40" harmonicMeanSpeed="16.40" length="5.00" nVehEntered="1"/>
    <interval begin="510.00" end="540.00" id="0" nVehContrib="0" flow="0.00" occupancy="0.00" speed="-1.00" harmonicMeanSpeed="-1.00" length="-1.00" nVehEntered="0"/>
    <interval begin="540.00" end="570.00" id="0" nVehContrib="0" flow="0.00" occupancy="0.00" speed="-1.00" harmonicMeanSpeed="-1.00" length="-1.00" nVehEntered="0"/>
    <interval begin="570.00" end="600.00" id="0" nVehContrib="0" flow="0.00" occupancy="0.00" speed="-1.00" harmonicMeanSpeed="-1.00" length="-1.00" nVehEntered="0"/>
    <interval begin="600.00" end="630.00" id="0" nVehContrib="0" flow="0.00" occupancy="0.00" speed="-1.00" harmonicMeanSpeed="-1.00" length="-1.00" nVehEntered="0"/>
    <interval begin="630.00" end="660.00" id="0" nVehContrib="0" flow="0.00" occupancy="0.00" speed="-1.00" harmonicMeanSpeed="-1.00" length="-1.00" nVehEntered="0"/>
    <interval begin="660.00" end="690.00" id="0" nVehContrib="0" flow="0.00" occupancy="0.00" speed="-1.00" harmonicMeanSpeed="-1.00" length="-1.00" nVehEntered="0"/>
    <interval begin="690.00" end="720.00" id="0" nVehContrib="1" flow="120.00" occupancy="1.04" speed="16.00" harmonicMeanSpeed="16.00" length="5.00" nVehEntered="1"/>
    <interval begin="720.00" end="750.00" id="0" nVehContrib="1" flow="120.00" occupancy="1.14" speed="14.59" harmonicMeanSpeed="14.59" length="5.00" nVehEntered="1"/>
    <interval begin="750.00" end="780.00" id="0" nVehContrib="0" flow="0.00" occupancy="0.00" speed="-1.00" harmonicMeanSpeed="-1.00" length="-1.00" nVehEntered="0"/>
    <interval begin="780.00" end="810.00" id="0" nVehContrib="1" flow="120.00" occupancy="1.00" speed="16.63" harmonicMeanSpeed="16.63" length="5.00" nVehEntered="1"/>
    <interval begin="810.00" end="840.00" id="0" nVehContrib="2" flow="240.00" occupancy="2.11" speed="15.86" harmonicMeanSpeed="15.83" length="5.00" nVehEntered="2"/>
    <interval begin="840.00" end="870.00" id="0" nVehContrib="0" flow="0.00" occupancy="0.00" speed="-1.00" harmonicMeanSpeed="-1.00" length="-1.00" nVehEntered="0"/>
    <interval begin="870.00" end="900.00" id="0" nVehContrib="0" flow="0.00" occupancy="0.00" speed="-1.00" harmonicMeanSpeed="-1.00" length="-1.00" nVehEntered="0"/>
    <interval begin="900.00" end="930.00" id="0" nVehContrib="2" flow="240.00" occupancy="3.32" speed="10.16" harmonicMeanSpeed="10.05" length="5.00" nVehEntered="2"/>
    <interval begin="930.00" end="960.00" id="0" nVehContrib="0" flow="0.00" occupancy="0.00" speed="-1.00" harmonicMeanSpeed="-1.00" length="-1.00" nVehEntered="0"/>
    <interval begin="960.00" end="990.00" id="0" nVehContrib="0" flow="0.00" occupancy="0.00" speed="-1.00" harmonicMeanSpeed="-1.00" length="-1.00" nVehEntered="0"/>
    <interval begin="990.00" end="1020.00" id="0" nVehContrib="0" flow="0.00" occupancy="0.00" speed="-1.00" harmonicMeanSpeed="-1.00" length="-1.00" nVehEntered="0"/>
    <interval begin="1020.00" end="1050.00" id="0" nVehContrib="1" flow="120.00" occupancy="3.93" speed="4.24" harmonicMeanSpeed="4.24" length="5.00" nVehEntered="1"/>
    <interval begin="1050.00" end="1080.00" id="0" nVehContrib="1" flow="120.00" occupancy="1.12" speed="14.85" harmonicMeanSpeed="14.85" length="5.00" nVehEntered="1"/>
    <interval begin="1080.00" end="1110.00" id="0" nVehContrib="2" flow="240.00" occupancy="2.43" speed="13.74" harmonicMeanSpeed="13.72" length="5.00" nVehEntered="2"/>
    <interval begin="1110.00" end="1140.00" id="0" nVehContrib="0" flow="0.00" occupancy="0.00" speed="-1.00" harmonicMeanSpeed="-1.00" length="-1.00" nVehEntered="0"/>
    <interval begin="1140.00" end="1170.00" id="0" nVehContrib="1" flow="120.00" occupancy="1.21" speed="13.77" harmonicMeanSpeed="13.77" length="5.00" nVehEntered="1"/>
    <interval begin="1170.00" end="1200.00" id="0" nVehContrib="0" flow="0.00" occupancy="0.00" speed="-1.00" harmonicMeanSpeed="-1.00" length="-1.00" nVehEntered="0"/>
    <interval begin="1200.00" end="1230.00" id="0" nVehContrib="0" flow="0.00" occupancy="0.00" speed="-1.00" harmonicMeanSpeed="-1.00" length="-1.00" nVehEntered="0"/>
    <interval begin="1230.00" end="1260.00" id="0" nVehContrib="2" flow="240.00" occupancy="3.26" speed="10.24" harmonicMeanSpeed="10.23" length="5.00" nVehEntered="2"/>
    <interval begin="1260.00" end="1290.00" id="0" nVehContrib="0" flow="0.00" occupancy="0.00" speed="-1.00" harmonicMeanSpeed="-1.00" length="-1.00" nVehEntered="0"/>
    <interval begin="1290.00" end="1320.00" id="0" nVehContrib="0" flow="0.00" occupancy="0.00" speed="-1.00" harmonicMeanSpeed="-1.00" length="-1.00" nVehEntered="0"/>
    <interval begin="1320.00" end="1350.00" id="0" nVehContrib="1" flow="120.00" occupancy="4.13" speed="4.04" harmonicMeanSpeed="4.04" length="5.00" nVehEntered="1"/>
    <interval begin="1350.00" end="1380.00" id="0" nVehContrib="0" flow="0.00" occupancy="0.00" speed="-1.00" harmonicMeanSpeed="-1.00" length="-1.00" nVehEntered="0"/>
    <interval begin="1380.00" end="1410.00" id="0" nVehContrib="2" flow="240.00" occupancy="3.04" speed="11.37" harmonicMeanSpeed="10.95" length="5.00" nVehEntered="2"/>
    <interval begin="1410.00" end="1440.00" id="0" nVehContrib="0" flow="0.00" occupancy="0.00" speed="-1.00" harmonicMeanSpeed="-1.00" length="-1.00" nVehEntered="0"/>
    <interval begin="1440.00" end="1470.00" id="0" nVehContrib="0" flow="0.00" occupancy="0.00" speed="-1.00" harmonicMeanSpeed="-1.00" length="-1.00" nVehEntered="0"/>
    <interval begin="1470.00" end="1500.00" id="0" nVehContrib="0" flow="0.00" occupancy="0.00" speed="-1.00" harmonicMeanSpeed="-1.00" length="-1.00" nVehEntered="0"/>
    <interval begin="1500.00" end="1530.00" id="0" nVehContrib="0" flow="0.00" occupancy="0.00" speed="-1.00" harmonicMeanSpeed="-1.00" length="-1.00" nVehEntered="0"/>
    <interval begin="1530.00" end="1560.00" id="0" nVehContrib="0" flow="0.00" occupancy="0.00" speed="-1.00" harmonicMeanSpeed="-1.00" length="-1.00" nVehEntered="0"/>
    <interval begin="1560.00" end="1590.00" id="0" nVehContrib="0" flow="0.00" occupancy="0.00" speed="-1.00" harmonicMeanSpeed="-1.00" length="-1.00" nVehEntered="0"/>
    <interval begin="1590.00" end="1620.00" id="0" nVehContrib="0" flow="0.00" occupancy="0.00" speed="-1.00" harmonicMeanSpeed="-1.00" length="-1.00" nVehEntered="0"/>
    <interval begin="1620.00" end="1650.00" id="0" nVehContrib="1" flow="120.00" occupancy="1.07" speed="15.59" harmonicMeanSpeed="15.59" length="5.00" nVehEntered="1"/>
    <interval begin="1650.00" end="1680.00" id="0" nVehContrib="3" flow="360.00" occupancy="4.27" speed="12.16" harmonicMeanSpeed="11.71" length="5.00" nVehEntered="3"/>
    <interval begin="1680.00" end="1710.00" id="0" nVehContrib="0" flow="0.00" occupancy="0.00" speed="-1.00" harmonicMeanSpeed="-1.00" length="-1.00" nVehEntered="0"/>
    <interval begin="1710.00" end="1740.00" id="0" nVehContrib="0" flow="0.00" occupancy="0.00" speed="-1.00" harmonicMeanSpeed="-1.00" length="-1.00" nVehEntered="0"/>
    <interval begin="1740.00" end="1770.00" id="0" nVehContrib="1" flow="120.00" occupancy="3.77" speed="4.42" harmonicMeanSpeed="4.42" length="5.00" nVehEntered="1"/>
    <interval begin="1770.00" end="1800.00" id="0" nVehContrib="3" flow="360.00" occupancy="7.55" speed="9.77" harmonicMeanSpeed="6.62" length="5.00" nVehEntered="3"/>
    <interval begin="1800.00" end="1830.00" id="0" nVehContrib="1" flow="120.00" occupancy="4.58" speed="3.64" harmonicMeanSpeed="3.64" length="5.00" nVehEntered="1"/>
    <interval begin="1830.00" end="1860.00" id="0" nVehContrib="0" flow="0.00" occupancy="0.00" speed="-1.00" harmonicMeanSpeed="-1.00" length="-1.00" nVehEntered="0"/>
    <interval begin="1860.00" end="1890.00" id="0" nVehContrib="2" flow="240.00" occupancy="12.15" speed="3.00" harmonicMeanSpeed="2.74" length="5.00" nVehEntered="2"/>
    <interval begin="1890.00" end="1920.00" id="0" nVehContrib="0" flow="0.00" occupancy="0.00" speed="-1.00" harmonicMeanSpeed="-1.00" length="-1.00" nVehEntered="0"/>
    <interval begin="1920.00" end="1950.00" id="0" nVehContrib="0" flow="0.00" occupancy="0.00" speed="-1.00" harmonicMeanSpeed="-1.00" length="-1.00" nVehEntered="0"/>
    <interval begin="1950.00" end="1980.00" id="0" nVehContrib="2" flow="240.00" occupancy="2.37" speed="14.20" harmonicMeanSpeed="14.05" length="5.00" nVehEntered="2"/>
    <interval begin="1980.00" end="2010.00" id="0" nVehContrib="2" flow="240.00" occupancy="6.79" speed="6.44" harmonicMeanSpeed="4.91" length="5.00" nVehEntered="2"/>
    <interval begin="2010.00" end="2040.00" id="0" nVehContrib="0" flow="0.00" occupancy="0.00" speed="-1.00" harmonicMeanSpeed="-1.00" length="-1.00" nVehEntered="0"/>
    <interval begin="2040.00" end="2070.00" id="0" nVehContrib="0" flow="0.00" occupancy="0.00" speed="-1.00" harmonicMeanSpeed="-1.00" length="-1.00" nVehEntered="0"/>
    <interval begin="2070.00" end="2100.00" id="0" nVehContrib="0" flow="0.00" occupancy="0.00" speed="-1.00" harmonicMeanSpeed="-1.00" length="-1.00" nVehEntered="0"/>
    <interval begin="2100.00" end="2130.00" id="0" nVehContrib="0" flow="0.00" occupancy="0.00" speed="-1.00" harmonicMeanSpeed="-1.00" length="-1.00" nVehEntered="0"/>
    <interval begin="2130.00" end="2160.00" id="0" nVehContrib="0" flow="0.00" occupancy="0.00" speed="-1.00" harmonicMeanSpeed="-1.00" length="-1.00" nVehEntered="0"/>
    <interval begin="2160.00" end="2190.00" id="0" nVehContrib="1" flow="120.00" occupancy="3.44" speed="4.84" harmonicMeanSpeed="4.84" length="5.00" nVehEntered="1"/>
    <interval begin="2190.00" end="2220.00" id="0" nVehContrib="0" flow="0.00" occupancy="0.00" speed="-1.00" harmonicMeanSpeed="-1.00" length="-1.00" nVehEntered="0"/>
    <interval begin="2220.00" end="2250.00" id="0" nVehContrib="1" flow="120.00" occupancy="1.01" speed="16.43" harmonicMeanSpeed="16.43" length="5.00" nVehEntered="1"/>
    <interval begin="2250.00" end="2280.00" id="0" nVehContrib="1" flow="120.00" occupancy="1.07" speed="15.60" harmonicMeanSpeed="15.60" length="5.00" nVehEntered="1"/>
    <interval begin="2280.00" end="2310.00" id="0" nVehContrib="0" flow="0.00" occupancy="0.00" speed="-1.00" harmonicMeanSpeed="-1.00" length="-1.00" nVehEntered="0"/>
    <interval begin="2310.00" end="2340.00" id="0" nVehContrib="0" flow="0.00" occupancy="0.00" speed="-1.00" harmonicMeanSpeed="-1.00" length="-1.00" nVehEntered="0"/>
    <interval begin="2340.00" end="2370.00" id="0" nVehContrib="0" flow="0.00" occupancy="0.00" speed="-1.00" harmonicMeanSpeed="-1.00" length="-1.00" nVehEntered="0"/>
    <interval begin="2370.00" end="2400.00" id="0" nVehContrib="2" flow="240.00" occupancy="2.48" speed="13.45" harmonicMeanSpeed="13.42" length="5.00" nVehEntered="2"/>
    <interval begin="2400.00" end="2430.00" id="0" nVehContrib="0" flow="0.00" occupancy="0.00" speed="-1.00" harmonicMeanSpeed="-1.00" length="-1.00" nVehEntered="0"/>
    <interval begin="2430.00" end="2460.00" id="0" nVehContrib="1" flow="120.00" occupancy="1.73" speed="9.65" harmonicMeanSpeed="9.65" length="5.00" nVehEntered="1"/>
    <interval begin="2460.00" end="2490.00" id="0" nVehContrib="1" flow="120.00" occupancy="5.70" speed="2.92" harmonicMeanSpeed="2.92" length="5.00" nVehEntered="1"/>
    <interval begin="2490.00" end="2520.00" id="0" nVehContrib="1" flow="120.00" occupancy="2.58" speed="6.45" harmonicMeanSpeed="6.45" length="5.00" nVehEntered="1"/>
    <interval begin="2520.00" end="2550.00" id="0" nVehContrib="0" flow="0.00" occupancy="0.00" speed="-1.00" harmonicMeanSpeed="-1.00" length="-1.00" nVehEntered="0"/>
    <interval begin="2550.00" end="2580.00" id="0" nVehContrib="1" flow="120.00" occupancy="3.52" speed="4.74" harmonicMeanSpeed="4.74" length="5.00" nVehEntered="1"/>
    <interval begin="2580.00" end="2610.00" id="0" nVehContrib="0" flow="0.00" occupancy="0.00" speed="-1.00" harmonicMeanSpeed="-1.00" length="-1.00" nVehEntered="0"/>
    <interval begin="2610.00" end="2640.00" id="0" nVehContrib="2" flow="240.00" occupancy="6.62" speed="6.18" harmonicMeanSpeed="5.03" length="5.00" nVehEntered="2"/>
    <interval begin="2640.00" end="2670.00" id="0" nVehContrib="1" flow="120.00" occupancy="8.12" speed="2.05" harmonicMeanSpeed="2.05" length="5.00" nVehEntered="1"/>
    <interval begin="2670.00" end="2700.00" id="0" nVehContrib="0" flow="0.00" occupancy="0.00" speed="-1.00" harmonicMeanSpeed="-1.00" length="-1.00" nVehEntered="0"/>
    <interval begin="2700.00" end="2730.00" id="0" nVehContrib="0" flow="0.00" occupancy="0.00" speed="-1.00" harmonicMeanSpeed="-1.00" length="-1.00" nVehEntered="0"/>
    <interval begin="2730.00" end="2760.00" id="0" nVehContrib="1" flow="120.00" occupancy="3.52" speed="4.74" harmonicMeanSpeed="4.74" length="5.00" nVehEntered="1"/>
    <interval begin="2760.00" end="2790.00" id="0" nVehContrib="1" flow="120.00" occupancy="1.50" speed="11.12" harmonicMeanSpeed="11.12" length="5.00" nVehEntered="1"/>
    <interval begin="2790.00" end="2820.00" id="0" nVehContrib="0" flow="0.00" occupancy="0.00" speed="-1.00" harmonicMeanSpeed="-1.00" length="-1.00" nVehEntered="0"/>
    <interval begin="2820.00" end="2850.00" id="0" nVehContrib="0" flow="0.00" occupancy="0.00" speed="-1.00" harmonicMeanSpeed="-1.00" length="-1.00" nVehEntered="0"/>
    <interval begin="2850.00" end="2880.00" id="0" nVehContrib="0" flow="0.00" occupancy="0.00" speed="-1.00" harmonicMeanSpeed="-1.00" length="-1.00" nVehEntered="0"/>
    <interval begin="2880.00" end="2910.00" id="0" nVehContrib="0" flow="0.00" occupancy="0.00" speed="-1.00" harmonicMeanSpeed="-1.00" length="-1.00" nVehEntered="0"/>
    <interval begin="2910.00" end="2940.00" id="0" nVehContrib="0" flow="0.00" occupancy="0.00" speed="-1.00" harmonicMeanSpeed="-1.00" length="-1.00" nVehEntered="0"/>
    <interval begin="2940.00" end="2970.00" id="0" nVehContrib="1" flow="120.00" occupancy="1.12" speed="14.83" harmonicMeanSpeed="14.83" length="5.00" nVehEntered="1"/>
    <interval begin="2970.00" end="3000.00" id="0" nVehContrib="0" flow="0.00" occupancy="0.00" speed="-1.00" harmonicMeanSpeed="-1.00" length="-1.00" nVehEntered="0"/>
    <interval begin="3000.00" end="3030.00" id="0" nVehContrib="2" flow="240.00" occupancy="2.12" speed="15.75" harmonicMeanSpeed="15.71" length="5.00" nVehEntered="2"/>
    <interval begin="3030.00" end="3060.00" id="0" nVehContrib="2" flow="240.00" occupancy="6.12" speed="6.52" harmonicMeanSpeed="5.44" length="5.00" nVehEntered="2"/>
    <interval begin="3060.00" end="3090.00" id="0" nVehContrib="0" flow="0.00" occupancy="0.00" speed="-1.00" harmonicMeanSpeed="-1.00" length="-1.00" nVehEntered="0"/>
    <interval begin="3090.00" end="3120.00" id="0" nVehContrib="0" flow="0.00" occupancy="0.00" speed="-1.00" harmonicMeanSpeed="-1.00" length="-1.00" nVehEntered="0"/>
    <interval begin="3120.00" end="3150.00" id="0" nVehContrib="5" flow="600.00" occupancy="20.94" speed="5.41" harmonicMeanSpeed="3.98" length="5.00" nVehEntered="5"/>
    <interval begin="3150.00" end="3180.00" id="0" nVehContrib="1" flow="120.00" occupancy="1.11" speed="14.97" harmonicMeanSpeed="14.97" length="5.00" nVehEntered="1"/>
    <interval begin="3180.00" end="3210.00" id="0" nVehContrib="0" flow="0.00" occupancy="0.00" speed="-1.00" harmonicMeanSpeed="-1.00" length="-1.00" nVehEntered="0"/>
    <interval begin="3210.00" end="3240.00" id="0" nVehContrib="2" flow="240.00" occupancy="3.05" speed="10.98" harmonicMeanSpeed="10.91" length="5.00" nVehEntered="2"/>
    <interval begin="3240.00" end="3270.00" id="0" nVehContrib="0" flow="0.00" occupancy="0.00" speed="-1.00" harmonicMeanSpeed="-1.00" length="-1.00" nVehEntered="0"/>
    <interval begin="3270.00" end="3300.00" id="0" nVehContrib="2" flow="240.00" occupancy="5.88" speed="8.28" harmonicMeanSpeed="5.67" length="5.00" nVehEntered="2"/>
    <interval begin="3300.00" end="3330.00" id="0" nVehContrib="1" flow="120.00" occupancy="1.02" speed="16.42" harmonicMeanSpeed="16.42" length="5.00" nVehEntered="1"/>
    <interval begin="3330.00" end="3360.00" id="0" nVehContrib="1" flow="120.00" occupancy="4.54" speed="3.67" harmonicMeanSpeed="3.67" length="5.00" nVehEntered="1"/>
    <interval begin="3360.00" end="3390.00" id="0" nVehContrib="1" flow="120.00" occupancy="1.94" speed="8.58" harmonicMeanSpeed="8.58" length="5.00" nVehEntered="1"/>
    <interval begin="3390.00" end="3420.00" id="0" nVehContrib="0" flow="0.00" occupancy="0.00" speed="-1.00" harmonicMeanSpeed="-1.00" length="-1.00" nVehEntered="0"/>
    <interval begin="3420.00" end="3450.00" id="0" nVehContrib="1" flow="120.00" occupancy="5.13" speed="3.25" harmonicMeanSpeed="3.25" length="5.00" nVehEntered="1"/>
    <interval begin="3450.00" end="3480.00" id="0" nVehContrib="0" flow="0.00" occupancy="0.00" speed="-1.00" harmonicMeanSpeed="-1.00" length="-1.00" nVehEntered="0"/>
    <interval begin="3480.00" end="3510.00" id="0" nVehContrib="0" flow="0.00" occupancy="0.00" speed="-1.00" harmonicMeanSpeed="-1.00" length="-1.00" nVehEntered="0"/>
    <interval begin="3510.00" end="3540.00" id="0" nVehContrib="0" flow="0.00" occupancy="0.00" speed="-1.00" harmonicMeanSpeed="-1.00" length="-1.00" nVehEntered="0"/>
    <interval begin="3540.00" end="3570.00" id="0" nVehContrib="4" flow="480.00" occupancy="11.51" speed="9.15" harmonicMeanSpeed="5.79" length="5.00" nVehEntered="4"/>
    <interval begin="3570.00" end="3600.00" id="0" nVehContrib="1" flow="120.00" occupancy="8.43" speed="1.98" harmonicMeanSpeed="1.98" length="5.00" nVehEntered="1"/>
    <interval begin="3600.00" end="3630.00" id="0" nVehContrib="0" flow="0.00" occupancy="0.00" speed="-1.00" harmonicMeanSpeed="-1.00" length="-1.00" nVehEntered="0"/>
    <interval begin="3630.00" end="3660.00" id="0" nVehContrib="0" flow="0.00" occupancy="0.00" speed="-1.00" harmonicMeanSpeed="-1.00" length="-1.00" nVehEntered="0"/>
    <interval begin="3660.00" end="3690.00" id="0" nVehContrib="1" flow="120.00" occupancy="1.05" speed="15.84" harmonicMeanSpeed="15.84" length="5.00" nVehEntered="1"/>
    <interval begin="3690.00" end="3720.00" id="0" nVehContrib="1" flow="120.00" occupancy="1.15" speed="14.45" harmonicMeanSpeed="14.45" length="5.00" nVehEntered="1"/>
    <interval begin="3720.00" end="3750.00" id="0" nVehContrib="0" flow="0.00" occupancy="0.00" speed="-1.00" harmonicMeanSpeed="-1.00" length="-1.00" nVehEntered="0"/>
    <interval begin="3750.00" end="3780.00" id="0" nVehContrib="0" flow="0.00" occupancy="0.00" speed="-1.00" harmonicMeanSpeed="-1.00" length="-1.00" nVehEntered="0"/>
    <interval begin="3780.00" end="3810.00" id="0" nVehContrib="1" flow="120.00" occupancy="4.17" speed="4.25" harmonicMeanSpeed="4.25" length="5.00" nVehEntered="2"/>
    <interval begin="3810.00" end="3840.00" id="0" nVehContrib="1" flow="120.00" occupancy="0.97" speed="13.76" harmonicMeanSpeed="13.76" length="5.00" nVehEntered="0"/>
    <interval begin="3840.00" end="3870.00" id="0" nVehContrib="0" flow="0.00" occupancy="0.00" speed="-1.00" harmonicMeanSpeed="-1.00" length="-1.00" nVehEntered="0"/>
    <interval begin="3870.00" end="3900.00" id="0" nVehContrib="2" flow="240.00" occupancy="3.09" speed="10.83" harmonicMeanSpeed="10.79" length="5.00" nVehEntered="2"/>
    <interval begin="3900.00" end="3930.00" id="0" nVehContrib="1" flow="120.00" occupancy="1.01" speed="16.53" harmonicMeanSpeed="16.53" length="5.00" nVehEntered="1"/>
    <interval begin="3930.00" end="3960.00" id="0" nVehContrib="1" flow="120.00" occupancy="1.08" speed="15.47" harmonicMeanSpeed="15.47" length="5.00" nVehEntered="1"/>
    <interval begin="3960.00" end="3990.00" id="0" nVehContrib="0" flow="0.00" occupancy="0.00" speed="-1.00" harmonicMeanSpeed="-1.00" length="-1.00" nVehEntered="0"/>
    <interval begin="3990.00" end="4020.00" id="0" nVehContrib="0" flow="0.00" occupancy="0.00" speed="-1.00" harmonicMeanSpeed="-1.00" length="-1.00" nVehEntered="0"/>
    <interval begin="4020.00" end="4050.00" id="0" nVehContrib="1" flow="120.00" occupancy="1.65" speed="10.11" harmonicMeanSpeed="10.11" length="5.00" nVehEntered="1"/>
    <interval begin="4050.00" end="4080.00" id="0" nVehContrib="1" flow="120.00" occupancy="1.00" speed="16.59" harmonicMeanSpeed="16.59" length="5.00" nVehEntered="1"/>
    <interval begin="4080.00" end="4110.00" id="0" nVehContrib="0" flow="0.00" occupancy="0.00" speed="-1.00" harmonicMeanSpeed="-1.00" length="-1.00" nVehEntered="0"/>
    <interval begin="4110.00" end="4140.00" id="0" nVehContrib="1" flow="120.00" occupancy="4.14" speed="4.02" harmonicMeanSpeed="4.02" length="5.00" nVehEntered="1"/>
    <interval begin="4140.00" end="4170.00" id="0" nVehContrib="1" flow="120.00" occupancy="1.22" speed="13.68" harmonicMeanSpeed="13.68" length="5.00" nVehEntered="1"/>
    <interval begin="4170.00" end="4200.00" id="0" nVehContrib="1" flow="120.00" occupancy="1.94" speed="8.58" harmonicMeanSpeed="8.58" length="5.00" nVehEntered="1"/>
    <interval begin="4200.00" end="4230.00" id="0" nVehContrib="2" flow="240.00" occupancy="11.91" speed="3.14" harmonicMeanSpeed="2.80" length="5.00" nVehEntered="2"/>
    <interval begin="4230.00" end="4260.00" id="0" nVehContrib="1" flow="120.00" occupancy="1.03" speed="16.18" harmonicMeanSpeed="16.18" length="5.00" nVehEntered="1"/>
    <interval begin="4260.00" end="4290.00" id="0" nVehContrib="1" flow="120.00" occupancy="1.19" speed="14.02" harmonicMeanSpeed="14.02" length="5.00" nVehEntered="1"/>
    <interval begin="4290.00" end="4320.00" id="0" nVehContrib="0" flow="0.00" occupancy="0.00" speed="-1.00" harmonicMeanSpeed="-1.00" length="-1.00" nVehEntered="0"/>
    <interval begin="4320.00" end="4350.00" id="0" nVehContrib="2" flow="240.00" occupancy="6.45" speed="6.43" harmonicMeanSpeed="5.17" length="5.00" nVehEntered="2"/>
    <interval begin="4350.00" end="4380.00" id="0" nVehContrib="1" flow="120.00" occupancy="8.32" speed="2.00" harmonicMeanSpeed="2.00" length="5.00" nVehEntered="1"/>
    <interval begin="4380.00" end="4410.00" id="0" nVehContrib="2" flow="240.00" occupancy="5.55" speed="9.48" harmonicMeanSpeed="6.00" length="5.00" nVehEntered="2"/>
    <interval begin="4410.00" end="4440.00" id="0" nVehContrib="0" flow="0.00" occupancy="0.00" speed="-1.00" harmonicMeanSpeed="-1.00" length="-1.00" nVehEntered="0"/>
    <interval begin="4440.00" end="4470.00" id="0" nVehContrib="3" flow="360.00" occupancy="10.86" speed="5.29" harmonicMeanSpeed="4.60" length="5.00" nVehEntered="3"/>
    <interval begin="4470.00" end="4500.00" id="0" nVehContrib="0" flow="0.00" occupancy="0.00" speed="-1.00" harmonicMeanSpeed="-1.00" length="-1.00" nVehEntered="0"/>
    <interval begin="4500.00" end="4530.00" id="0" nVehContrib="0" flow="0.00" occupancy="0.00" speed="-1.00" harmonicMeanSpeed="-1.00" length="-1.00" nVehEntered="0"/>
    <interval begin="4530.00" end="4560.00" id="0" nVehContrib="1" flow="120.00" occupancy="6.33" speed="2.63" harmonicMeanSpeed="2.63" length="5.00" nVehEntered="1"/>
    <interval begin="4560.00" end="4590.00" id="0" nVehContrib="0" flow="0.00" occupancy="3.33" speed="-1.00" harmonicMeanSpeed="-1.00" length="-1.00" nVehEntered="1"/>
    <interval begin="4590.00" end="4620.00" id="0" nVehContrib="2" flow="240.00" occupancy="1.93" speed="9.14" harmonicMeanSpeed="6.33" length="5.00" nVehEntered="1"/>
    <interval begin="4620.00" end="4650.00" id="0" nVehContrib="1" flow="120.00" occupancy="1.22" speed="13.65" harmonicMeanSpeed="13.65" length="5.00" nVehEntered="1"/>
    <interval begin="4650.00" end="4680.00" id="0" nVehContrib="1" flow="120.00" occupancy="1.96" speed="8.48" harmonicMeanSpeed="8.48" length="5.00" nVehEntered="1"/>
    <interval begin="4680.00" end="4710.00" id="0" nVehContrib="1" flow="120.00" occupancy="1.05" speed="15.88" harmonicMeanSpeed="15.88" length="5.00" nVehEntered="1"/>
    <interval begin="4710.00" end="4740.00" id="0" nVehContrib="0" flow="0.00" occupancy="0.00" speed="-1.00" harmonicMeanSpeed="-1.00" length="-1.00" nVehEntered="0"/>
    <interval begin="4740.00" end="4770.00" id="0" nVehContrib="0" flow="0.00" occupancy="0.00" speed="-1.00" harmonicMeanSpeed="-1.00" length="-1.00" nVehEntered="0"/>
    <interval begin="4770.00" end="4800.00" id="0" nVehContrib="0" flow="0.00" occupancy="0.00" speed="-1.00" harmonicMeanSpeed="-1.00" length="-1.00" nVehEntered="0"/>
    <interval begin="4800.00" end="4830.00" id="0" nVehContrib="1" flow="120.00" occupancy="1.08" speed="15.40" harmonicMeanSpeed="15.40" length="5.00" nVehEntered="1"/>
    <interval begin="4830.00" end="4860.00" id="0" nVehContrib="0" flow="0.00" occupancy="0.00" speed="-1.00" harmonicMeanSpeed="-1.00" length="-1.00" nVehEntered="0"/>
    <interval begin="4860.00" end="4890.00" id="0" nVehContrib="1" flow="120.00" occupancy="1.00" speed="16.62" harmonicMeanSpeed="16.62" length="5.00" nVehEntered="1"/>
    <interval begin="4890.00" end="4920.00" id="0" nVehContrib="1" flow="120.00" occupancy="4.71" speed="3.54" harmonicMeanSpeed="3.54" length="5.00" nVehEntered="1"/>
    <interval begin="4920.00" end="4950.00" id="0" nVehContrib="1" flow="120.00" occupancy="5.09" speed="3.27" harmonicMeanSpeed="3.27" length="5.00" nVehEntered="1"/>
    <interval begin="4950.00" end="4980.00" id="0" nVehContrib="1" flow="120.00" occupancy="3.42" speed="4.87" harmonicMeanSpeed="4.87" length="5.00" nVehEntered="1"/>
    <interval begin="4980.00" end="5010.00" id="0" nVehContrib="1" flow="120.00" occupancy="8.21" speed="2.03" harmonicMeanSpeed="2.03" length="5.00" nVehEntered="1"/>
    <interval begin="5010.00" end="5040.00" id="0" nVehContrib="0" flow="0.00" occupancy="0.00" speed="-1.00" harmonicMeanSpeed="-1.00" length="-1.00" nVehEntered="0"/>
    <interval begin="5040.00" end="5070.00" id="0" nVehContrib="0" flow="0.00" occupancy="0.00" speed="-1.00" harmonicMeanSpeed="-1.00" length="-1.00" nVehEntered="0"/>