<?xml version="1.0" encoding="UTF-8"?>

<!-- generated on 2026-04-10T04:13:20.650104+05:30 by Eclipse SUMO sumo 1.25.0
<sumoConfiguration xmlns:xsi="http://www.w3.org/2001/XMLSchema-instance" xsi:noNamespaceSchemaLocation="http://sumo.dlr.de/xsd/sumoConfiguration.xsd">

    <input>
        <net-file value="./cross.net.xml"/>
        <route-files value="./cross.rou.xml"/>
    </input>

    <output>
        <tripinfo-output value="random_tripinfo.xml"/>
    </output>

    <processing>
        <time-to-teleport value="-1"/>
        <waiting-time-memory value="1000"/>
        <max-depart-delay value="-1"/>
    </processing>

    <traci_server>
        <remote-port value="36307"/>
    </traci_server>

    <random_number>
        <random value="true"/>
    </random_number>

</sumoConfiguration>
-->

<tripinfos xmlns:xsi="http://www.w3.org/2001/XMLSchema-instance" xsi:noNamespaceSchemaLocation="http://sumo.dlr.de/xsd/tripinfo_file.xsd">
    <tripinfo id="SN_0" depart="0.00" departLane="53o_0" departPos="5.10" departSpeed="0.00" departDelay="0.00" arrival="89.00" arrivalLane="54i_0" arrivalPos="10.00" arrivalSpeed="11.84" duration="89.00" routeLength="1015.18" waitingTime="0.00" waitingCount="0" stopTime="0.00" timeLoss="13.99" rerouteNo="0" devices="tripinfo_SN_0" vType="cars" speedFactor="1.02" vaporized=""/>
    <tripinfo id="NS_0" depart="1.00" departLane="54o_0" departPos="5.10" departSpeed="0.00" departDelay="0.00" arrival="94.00" arrivalLane="53i_0" arrivalPos="10.00" arrivalSpeed="10.86" duration="93.00" routeLength="1015.18" waitingTime="0.00" waitingCount="0" stopTime="0.00" timeLoss="14.27" rerouteNo="0" devices="tripinfo_NS_0" vType="cars" speedFactor="0.95" vaporized=""/>
    <tripinfo id="WE_1" depart="16.00" departLane="51o_0" departPos="5.10" departSpeed="0.00" departDelay="0.00" arrival="110.00" arrivalLane="52i_0" arrivalPos="10.00" arrivalSpeed="10.85" duration="94.00" routeLength="1015.18" waitingTime="0.00" waitingCount="0" stopTime="0.00" timeLoss="14.85" rerouteNo="0" devices="tripinfo_WE_1" vType="cars" speedFactor="0.93" vaporized=""/>
    <tripinfo id="EW_0" depart="3.00" departLane="52o_0" departPos="5.10" departSpeed="0.00" departDelay="0.00" arrival="112.00" arrivalLane="51i_0" arrivalPos="10.00" arrivalSpeed="12.04" duration="109.00" routeLength="1015.18" waitingTime="9.00" waitingCount="1" stopTime="0.00" timeLoss="34.28" rerouteNo="0" devices="tripinfo_EW_0" vType="cars" speedFactor="1.03" vaporized=""/>
    <tripinfo id="WE_0" depart="10.00" departLane="51o_0" departPos="5.10" departSpeed="0.00" departDelay="0.00" arrival="114.00" arrivalLane="52i_0" arrivalPos="10.00" arrivalSpeed="11.14" duration="104.00" routeLength="1015.18" waitingTime="1.00" waitingCount="1" stopTime="0.00" timeLoss="26.23" rerouteNo="0" devices="tripinfo_WE_0" vType="cars" speedFactor="0.97" vaporized=""/>
    <tripinfo id="SE_0" depart="21.00" departLane="53o_0" departPos="5.10" departSpeed="0.00" departDelay="0.00" arrival="115.00" arrivalLane="52i_1" arrivalPos="10.00" arrivalSpeed="12.97" duration="94.00" routeLength="996.93" waitingTime="0.00" waitingCount="0" stopTime="0.00" timeLoss="23.38" rerouteNo="0" devices="tripinfo_SE_0" vType="cars" speedFactor="1.13" vaporized=""/>
    <tripinfo id="SW_0" depart="29.00" departLane="53o_2" departPos="5.10" departSpeed="0.00" departDelay="0.00" arrival="119.00" arrivalLane="51i_0" arrivalPos="10.00" arrivalSpeed="11.86" duration="90.00" routeLength="1015.04" waitingTime="0.00" waitingCount="0" stopTime="0.00" timeLoss="17.69" rerouteNo="0" devices="tripinfo_SW_0" vType="cars" speedFactor="1.10" vaporized=""/>
    <tripinfo id="SE_1" depart="31.00" departLane="53o_0" departPos="5.10" departSpeed="0.00" departDelay="0.00" arrival="122.00" arrivalLane="52i_0" arrivalPos="10.00" arrivalSpeed="12.10" duration="91.00" routeLength="996.93" waitingTime="0.00" waitingCount="0" stopTime="0.00" timeLoss="17.91" rerouteNo="0" devices="tripinfo_SE_1" vType="cars" speedFactor="1.05" vaporized=""/>
    <tripinfo id="WN_0" depart="8.00" departLane="51o_2" departPos="5.10" departSpeed="0.00" departDelay="0.00" arrival="125.00" arrivalLane="54i_0" arrivalPos="10.00" arrivalSpeed="10.51" duration="117.00" routeLength="1015.04" waitingTime="6.00" waitingCount="2" stopTime="0.00" timeLoss="34.70" rerouteNo="0" devices="tripinfo_WN_0" vType="cars" speedFactor="0.89" vaporized=""/>
    <tripinfo id="NE_1" depart="34.00" departLane="54o_2" departPos="5.10" departSpeed="0.00" departDelay="0.00" arrival="131.00" arrivalLane="52i_0" arrivalPos="10.00" arrivalSpeed="11.23" duration="97.00" routeLength="1015.04" waitingTime="0.00" waitingCount="0" stopTime="0.00" timeLoss="18.50" rerouteNo="0" devices="tripinfo_NE_1" vType="cars" speedFactor="0.96" vaporized=""/>
    <tripinfo id="NE_0" depart="23.00" departLane="54o_2" departPos="5.10" departSpeed="0.00" departDelay="0.00" arrival="136.00" arrivalLane="52i_0" arrivalPos="10.00" arrivalSpeed="9.29" duration="113.00" routeLength="1015.04" waitingTime="2.00" waitingCount="1" stopTime="0.00" timeLoss="25.60" rerouteNo="0" devices="tripinfo_NE_0" vType="cars" speedFactor="0.83" vaporized=""/>
    <tripinfo id="EW_1" depart="26.00" departLane="52o_0" departPos="5.10" departSpeed="0.00" departDelay="0.00" arrival="138.00" arrivalLane="51i_0" arrivalPos="10.00" arrivalSpeed="11.48" duration="112.00" routeLength="1015.18" waitingTime="10.00" waitingCount="1" stopTime="0.00" timeLoss="36.64" rerouteNo="0" devices="tripinfo_EW_1" vType="cars" speedFactor="1.02" vaporized=""/>
    <tripinfo id="WE_2" depart="39.00" departLane="51o_0" departPos="5.10" departSpeed="0.00" departDelay="0.00" arrival="140.00" arrivalLane="52i_0" arrivalPos="10.00" arrivalSpeed="9.88" duration="101.00" routeLength="1015.18" waitingTime="0.00" waitingCount="0" stopTime="0.00" timeLoss="14.95" rerouteNo="0" devices="tripinfo_WE_2" vType="cars" speedFactor="0.84" vaporized=""/>
    <tripinfo id="WE_3" depart="42.00" departLane="51o_1" departPos="5.10" departSpeed="0.00" departDelay="0.00" arrival="141.00" arrivalLane="52i_1" arrivalPos="10.00" arrivalSpeed="10.06" duration="99.00" routeLength="1015.18" waitingTime="0.00" waitingCount="0" stopTime="0.00" timeLoss="14.49" rerouteNo="0" devices="tripinfo_WE_3" vType="cars" speedFactor="0.85" vaporized=""/>
    <tripinfo id="EN_0" depart="48.00" departLane="52o_0" departPos="5.10" departSpeed="0.00" departDelay="0.00" arrival="143.00" arrivalLane="54i_0" arrivalPos="10.00" arrivalSpeed="11.37" duration="95.00" routeLength="996.93" waitingTime="0.00" waitingCount="0" stopTime="0.00" timeLoss="17.46" rerouteNo="0" devices="tripinfo_EN_0" vType="cars" speedFactor="0.96" vaporized=""/>
    <tripinfo id="WN_1" depart="24.00" departLane="51o_2" departPos="5.10" departSpeed="0.00" departDelay="0.00" arrival="149.00" arrivalLane="54i_0" arrivalPos="10.00" arrivalSpeed="11.70" duration="125.00" routeLength="1015.04" waitingTime="19.00" waitingCount="2" stopTime="0.00" timeLoss="49.83" rerouteNo="0" devices="tripinfo_WN_1" vType="cars" speedFactor="1.03" vaporized=""/>
    <tripinfo id="NE_2" depart="51.00" departLane="54o_2" departPos="5.10" departSpeed="0.00" departDelay="0.00" arrival="151.00" arrivalLane="52i_0" arrivalPos="10.00" arrivalSpeed="12.34" duration="100.00" routeLength="1015.04" waitingTime="1.00" waitingCount="1" stopTime="0.00" timeLoss="27.29" rerouteNo="0" devices="tripinfo_NE_2" vType="cars" speedFactor="1.09" vaporized=""/>
    <tripinfo id="SN_1" depart="42.00" departLane="53o_0" departPos="5.10" departSpeed="0.00" departDelay="0.00" arrival="158.00" arrivalLane="54i_0" arrivalPos="10.00" arrivalSpeed="13.23" duration="116.00" routeLength="1015.18" waitingTime="19.00" waitingCount="1" stopTime="0.00" timeLoss="45.04" rerouteNo="0" devices="tripinfo_SN_1" vType="cars" speedFactor="1.13" vaporized=""/>
    <tripinfo id="SN_2" depart="47.00" departLane="53o_0" departPos="5.10" departSpeed="0.00" departDelay="0.00" arrival="164.00" arrivalLane="54i_0" arrivalPos="10.00" arrivalSpeed="11.24" duration="117.00" routeLength="1015.18" waitingTime="14.00" waitingCount="1" stopTime="0.00" timeLoss="38.99" rerouteNo="0" devices="tripinfo_SN_2" vType="cars" speedFactor="0.96" vaporized=""/>
    <tripinfo id="NW_0" depart="71.00" departLane="54o_0" departPos="5.10" departSpeed="0.00" departDelay="0.00" arrival="165.00" arrivalLane="51i_0" arrivalPos="10.00" arrivalSpeed="11.18" duration="94.00" routeLength="996.93" waitingTime="0.00" waitingCount="0" stopTime="0.00" timeLoss="17.10" rerouteNo="0" devices="tripinfo_NW_0" vType="cars" speedFactor="0.96" vaporized=""/>
    <tripinfo id="SN_3" depart="73.00" departLane="53o_0" departPos="5.10" departSpeed="0.00" departDelay="0.00" arrival="167.00" arrivalLane="54i_0" arrivalPos="10.00" arrivalSpeed="10.68" duration="94.00" routeLength="1015.18" waitingTime="0.00" waitingCount="0" stopTime="0.00" timeLoss="14.90" rerouteNo="0" devices="tripinfo_SN_3" vType="cars" speedFactor="0.94" vaporized=""/>
    <tripinfo id="NS_1" depart="91.00" departLane="54o_0" departPos="5.10" departSpeed="0.00" departDelay="0.00" arrival="179.00" arrivalLane="53i_0" arrivalPos="10.00" arrivalSpeed="12.48" duration="88.00" routeLength="1015.18" waitingTime="0.00" waitingCount="0" stopTime="0.00" timeLoss="14.93" rerouteNo="0" devices="tripinfo_NS_1" vType="cars" speedFactor="1.07" vaporized=""/>
    <tripinfo id="NW_1" depart="77.00" departLane="54o_0" departPos="5.10" departSpeed="0.00" departDelay="0.00" arrival="181.00" arrivalLane="51i_0" arrivalPos="10.00" arrivalSpeed="11.97" duration="104.00" routeLength="996.93" waitingTime="4.00" waitingCount="1" stopTime="0.00" timeLoss="29.22" rerouteNo="0" devices="tripinfo_NW_1" vType="cars" speedFactor="1.02" vaporized=""/>
    <tripinfo id="NS_2" depart="92.00" departLane="54o_1" departPos="5.10" departSpeed="0.00" departDelay="0.00" arrival="182.00" arrivalLane="53i_0" arrivalPos="10.00" arrivalSpeed="11.61" duration="90.00" routeLength="1015.18" waitingTime="0.00" waitingCount="0" stopTime="0.00" timeLoss="14.08" rerouteNo="0" devices="tripinfo_NS_2" vType="cars" speedFactor="1.00" vaporized=""/>
    <tripinfo id="EW_4" depart="93.00" departLane="52o_0" departPos="5.10" departSpeed="0.00" departDelay="0.00" arrival="215.00" arrivalLane="51i_1" arrivalPos="10.00" arrivalSpeed="13.43" duration="122.00" routeLength="1015.18" waitingTime="23.00" waitingCount="1" stopTime="0.00" timeLoss="52.00" rerouteNo="0" devices="tripinfo_EW_4" vType="cars" speedFactor="1.16" vaporized=""/>
    <tripinfo id="EW_3" depart="70.00" departLane="52o_0" departPos="5.10" departSpeed="0.00" departDelay="0.00" arrival="216.00" arrivalLane="51i_0" arrivalPos="10.00" arrivalSpeed="11.79" duration="146.00" routeLength="1015.18" waitingTime="46.00" waitingCount="1" stopTime="0.00" timeLoss="72.37" rerouteNo="0" devices="tripinfo_EW_3" vType="cars" speedFactor="1.05" vaporized=""/>
    <tripinfo id="WE_4" depart="84.00" departLane="51o_0" departPos="5.10" departSpeed="0.00" departDelay="0.00" arrival="217.00" arrivalLane="52i_0" arrivalPos="10.00" arrivalSpeed="11.60" duration="133.00" routeLength="1015.18" waitingTime="33.00" waitingCount="1" stopTime="0.00" timeLoss="58.10" rerouteNo="0" devices="tripinfo_WE_4" vType="cars" speedFactor="1.02" vaporized=""/>
    <tripinfo id="EN_1" depart="83.00" departLane="52o_0" departPos="5.10" departSpeed="0.00" departDelay="0.00" arrival="219.00" arrivalLane="54i_0" arrivalPos="10.00" arrivalSpeed="11.62" duration="136.00" routeLength="996.93" waitingTime="35.00" waitingCount="1" stopTime="0.00" timeLoss="61.25" rerouteNo="0" devices="tripinfo_EN_1" vType="cars" speedFactor="1.01" vaporized=""/>
    <tripinfo id="WN_2" depart="92.00" departLane="51o_2" departPos="5.10" departSpeed="0.00" departDelay="0.00" arrival="220.00" arrivalLane="54i_1" arrivalPos="10.00" arrivalSpeed="14.18" duration="128.00" routeLength="1015.04" waitingTime="30.00" waitingCount="2" stopTime="0.00" timeLoss="60.60" rerouteNo="0" devices="tripinfo_WN_2" vType="cars" speedFactor="1.25" vaporized=""/>
    <tripinfo id="EW_2" depart="53.00" departLane="52o_0" departPos="5.10" departSpeed="0.00" departDelay="0.00" arrival="223.00" arrivalLane="51i_0" arrivalPos="10.00" arrivalSpeed="10.51" duration="170.00" routeLength="1015.18" waitingTime="63.00" waitingCount="1" stopTime="0.00" timeLoss="88.47" rerouteNo="0" devices="tripinfo_EW_2" vType="cars" speedFactor="0.89" vaporized=""/>
    <tripinfo id="WN_3" depart="97.00" departLane="51o_2" departPos="5.10" departSpeed="0.00" departDelay="2.00" arrival="228.00" arrivalLane="54i_0" arrivalPos="10.00" arrivalSpeed="12.45" duration="131.00" routeLength="1015.04" waitingTime="24.00" waitingCount="2" stopTime="0.00" timeLoss="56.90" rerouteNo="0" devices="tripinfo_WN_3" vType="cars" speedFactor="1.07" vaporized=""/>
    <tripinfo id="ES_0" depart="55.00" departLane="52o_2" departPos="5.10" departSpeed="0.00" departDelay="0.00" arrival="229.00" arrivalLane="53i_0" arrivalPos="10.00" arrivalSpeed="10.86" duration="174.00" routeLength="1015.04" waitingTime="63.00" waitingCount="2" stopTime="0.00" timeLoss="93.79" rerouteNo="0" devices="tripinfo_ES_0" vType="cars" speedFactor="0.94" vaporized=""/>
    <tripinfo id="WE_5" depart="140.00" departLane="51o_0" departPos="5.10" departSpeed="0.00" departDelay="0.00" arrival="233.00" arrivalLane="52i_0" arrivalPos="10.00" arrivalSpeed="11.05" duration="93.00" routeLength="1015.18" waitingTime="0.00" waitingCount="0" stopTime="0.00" timeLoss="14.47" rerouteNo="0" devices="tripinfo_WE_5" vType="cars" speedFactor="0.96" vaporized=""/>
    <tripinfo id="EW_5" depart="122.00" departLane="52o_0" departPos="5.10" departSpeed="0.00" departDelay="0.00" arrival="235.00" arrivalLane="51i_0" arrivalPos="10.00" arrivalSpeed="11.46" duration="113.00" routeLength="1015.18" waitingTime="10.00" waitingCount="1" stopTime="0.00" timeLoss="39.25" rerouteNo="0" devices="tripinfo_EW_5" vType="cars" speedFactor="1.05" vaporized=""/>
    <tripinfo id="WN_4" depart="113.00" departLane="51o_2" departPos="5.10" departSpeed="0.00" departDelay="0.00" arrival="240.00" arrivalLane="54i_0" arrivalPos="10.00" arrivalSpeed="12.89" duration="127.00" routeLength="1015.04" waitingTime="8.00" waitingCount="3" stopTime="0.00" timeLoss="55.74" rerouteNo="0" devices="tripinfo_WN_4" vType="cars" speedFactor="1.14" vaporized=""/>
    <tripinfo id="EN_2" depart="114.00" departLane="52o_0" departPos="5.10" departSpeed="0.00" departDelay="0.00" arrival="244.00" arrivalLane="54i_0" arrivalPos="10.00" arrivalSpeed="10.05" duration="130.00" routeLength="996.93" waitingTime="15.00" waitingCount="2" stopTime="0.00" timeLoss="46.35" rerouteNo="0" devices="tripinfo_EN_2" vType="cars" speedFactor="0.85" vaporized=""/>
    <tripinfo id="WN_6" depart="147.00" departLane="51o_2" departPos="5.10" departSpeed="0.00" departDelay="0.00" arrival="246.00" arrivalLane="54i_0" arrivalPos="10.00" arrivalSpeed="12.07" duration="99.00" routeLength="1015.04" waitingTime="0.00" waitingCount="0" stopTime="0.00" timeLoss="25.10" rerouteNo="0" devices="tripinfo_WN_6" vType="cars" speedFactor="1.06" vaporized=""/>
    <tripinfo id="WN_5" depart="118.00" departLane="51o_2" departPos="5.10" departSpeed="0.00" departDelay="2.00" arrival="251.00" arrivalLane="54i_0" arrivalPos="10.00" arrivalSpeed="10.25" duration="133.00" routeLength="1015.04" waitingTime="6.00" waitingCount="3" stopTime="0.00" timeLoss="51.03" rerouteNo="0" devices="tripinfo_WN_5" vType="cars" speedFactor="0.89" vaporized=""/>
    <tripinfo id="NW_2" depart="101.00" departLane="54o_0" departPos="5.10" departSpeed="0.00" departDelay="7.00" arrival="253.00" arrivalLane="51i_0" arrivalPos="10.00" arrivalSpeed="13.67" duration="152.00" routeLength="996.93" waitingTime="57.00" waitingCount="1" stopTime="0.00" timeLoss="83.53" rerouteNo="0" devices="tripinfo_NW_2" vType="cars" speedFactor="1.18" vaporized=""/>
    <tripinfo id="NS_4" depart="152.00" departLane="54o_0" departPos="5.10" departSpeed="0.00" departDelay="0.00" arrival="258.00" arrivalLane="53i_0" arrivalPos="10.00" arrivalSpeed="11.34" duration="106.00" routeLength="1015.18" waitingTime="2.00" waitingCount="1" stopTime="0.00" timeLoss="29.18" rerouteNo="0" devices="tripinfo_NS_4" vType="cars" speedFactor="0.98" vaporized=""/>
    <tripinfo id="NS_5" depart="159.00" departLane="54o_0" departPos="5.10" departSpeed="0.00" departDelay="0.00" arrival="258.00" arrivalLane="53i_1" arrivalPos="10.00" arrivalSpeed="11.04" duration="99.00" routeLength="1015.18" waitingTime="0.00" waitingCount="0" stopTime="0.00" timeLoss="24.52" rerouteNo="0" devices="tripinfo_NS_5" vType="cars" speedFactor="1.03" vaporized=""/>
    <tripinfo id="NW_4" depart="171.00" departLane="54o_0" departPos="5.10" departSpeed="0.00" departDelay="0.00" arrival="258.00" arrivalLane="51i_0" arrivalPos="10.00" arrivalSpeed="12.51" duration="87.00" routeLength="996.93" waitingTime="0.00" waitingCount="0" stopTime="0.00" timeLoss="17.29" rerouteNo="0" devices="tripinfo_NW_4" vType="cars" speedFactor="1.14" vaporized=""/>
    <tripinfo id="NS_3" depart="96.00" departLane="54o_0" departPos="5.10" departSpeed="0.00" departDelay="2.00" arrival="260.00" arrivalLane="53i_0" arrivalPos="10.00" arrivalSpeed="12.16" duration="164.00" routeLength="1015.18" waitingTime="60.00" waitingCount="1" stopTime="0.00" timeLoss="91.38" rerouteNo="0" devices="tripinfo_NS_3" vType="cars" speedFactor="1.08" vaporized=""/>
    <tripinfo id="SN_5" depart="130.00" departLane="53o_0" departPos="5.10" departSpeed="0.00" departDelay="0.00" arrival="261.00" arrivalLane="54i_1" arrivalPos="10.00" arrivalSpeed="11.01" duration="131.00" routeLength="1015.18" waitingTime="26.00" waitingCount="1" stopTime="0.00" timeLoss="51.66" rerouteNo="0" devices="tripinfo_SN_5" vType="cars" speedFactor="0.93" vaporized=""/>
    <tripinfo id="SN_4" depart="117.00" departLane="53o_0" departPos="5.10" departSpeed="0.00" departDelay="0.00" arrival="262.00" arrivalLane="54i_0" arrivalPos="10.00" arrivalSpeed="10.62" duration="145.00" routeLength="1015.18" waitingTime="37.00" waitingCount="1" stopTime="0.00" timeLoss="65.54" rerouteNo="0" devices="tripinfo_SN_4" vType="cars" speedFactor="0.93" vaporized=""/>
    <tripinfo id="SN_6" depart="135.00" departLane="53o_0" departPos="5.10" departSpeed="0.00" departDelay="1.00" arrival="264.00" arrivalLane="54i_0" arrivalPos="10.00" arrivalSpeed="11.25" duration="129.00" routeLength="1015.18" waitingTime="21.00" waitingCount="1" stopTime="0.00" timeLoss="56.57" rerouteNo="0" devices="tripinfo_SN_6" vType="cars" speedFactor="1.10" vaporized=""/>
    <tripinfo id="SN_7" depart="157.00" departLane="53o_0" departPos="5.10" departSpeed="0.00" departDelay="0.00" arrival="265.00" arrivalLane="54i_0" arrivalPos="10.00" arrivalSpeed="10.79" duration="108.00" routeLength="1015.18" waitingTime="0.00" waitingCount="0" stopTime="0.00" timeLoss="26.61" rerouteNo="0" devices="tripinfo_SN_7" vType="cars" speedFactor="0.90" vaporized=""/>
    <tripinfo id="NW_3" depart="166.00" departLane="54o_0" departPos="5.10" departSpeed="0.00" departDelay="0.00" arrival="265.00" arrivalLane="51i_0" arrivalPos="10.00" arrivalSpeed="10.73" duration="99.00" routeLength="996.93" waitingTime="0.00" waitingCount="0" stopTime="0.00" timeLoss="19.07" rerouteNo="0" devices="tripinfo_NW_3" vType="cars" speedFactor="0.90" vaporized=""/>
    <tripinfo id="NE_3" depart="172.00" departLane="54o_2" departPos="5.10" departSpeed="0.00" departDelay="0.00" arrival="270.00" arrivalLane="52i_0" arrivalPos="10.00" arrivalSpeed="10.45" duration="98.00" routeLength="1015.04" waitingTime="0.00" waitingCount="0" stopTime="0.00" timeLoss="16.22" rerouteNo="0" devices="tripinfo_NE_3" vType="cars" speedFactor="0.89" vaporized=""/>
    <tripinfo id="SW_1" depart="160.00" departLane="53o_2" departPos="5.10" departSpeed="0.00" departDelay="0.00" arrival="271.00" arrivalLane="51i_0" arrivalPos="10.00" arrivalSpeed="10.80" duration="111.00" routeLength="1015.04" waitingTime="4.00" waitingCount="1" stopTime="0.00" timeLoss="30.29" rerouteNo="0" devices="tripinfo_SW_1" vType="cars" speedFactor="0.92" vaporized=""/>
    <tripinfo id="SN_8" depart="174.00" departLane="53o_0" departPos="5.10" departSpeed="0.00" departDelay="0.00" arrival="279.00" arrivalLane="54i_0" arrivalPos="10.00" arrivalSpeed="12.62" duration="105.00" routeLength="1015.18" waitingTime="7.00" waitingCount="1" stopTime="0.00" timeLoss="33.24" rerouteNo="0" devices="tripinfo_SN_8" vType="cars" speedFactor="1.10" vaporized=""/>
    <tripinfo id="WN_7" depart="197.00" departLane="51o_2" departPos="5.10" departSpeed="0.00" departDelay="0.00" arrival="298.00" arrivalLane="54i_0" arrivalPos="10.00" arrivalSpeed="12.04" duration="101.00" routeLength="1015.04" waitingTime="3.00" waitingCount="1" stopTime="0.00" timeLoss="29.17" rerouteNo="0" devices="tripinfo_WN_7" vType="cars" speedFactor="1.11" vaporized=""/>
    <tripinfo id="WN_8" depart="208.00" departLane="51o_2" departPos="5.10" departSpeed="0.00" departDelay="0.00" arrival="301.00" arrivalLane="54i_0" arrivalPos="10.00" arrivalSpeed="12.43" duration="93.00" routeLength="1015.04" waitingTime="0.00" waitingCount="0" stopTime="0.00" timeLoss="19.72" rerouteNo="0" devices="tripinfo_WN_8" vType="cars" speedFactor="1.08" vaporized=""/>
    <tripinfo id="ES_1" depart="172.00" departLane="52o_2" departPos="5.10" departSpeed="0.00" departDelay="0.00" arrival="302.00" arrivalLane="53i_0" arrivalPos="10.00" arrivalSpeed="11.25" duration="130.00" routeLength="1015.04" waitingTime="28.00" waitingCount="1" stopTime="0.00" timeLoss="54.64" rerouteNo="0" devices="tripinfo_ES_1" vType="cars" speedFactor="1.03" vaporized=""/>
    <tripinfo id="SE_2" depart="209.00" departLane="53o_0" departPos="5.10" departSpeed="0.00" departDelay="0.00" arrival="313.00" arrivalLane="52i_0" arrivalPos="10.00" arrivalSpeed="11.33" duration="104.00" routeLength="996.93" waitingTime="2.00" waitingCount="1" stopTime="0.00" timeLoss="27.11" rerouteNo="0" devices="tripinfo_SE_2" vType="cars" speedFactor="0.97" vaporized=""/>
    <tripinfo id="NE_4" depart="223.00" departLane="54o_2" departPos="5.10" departSpeed="0.00" departDelay="0.00" arrival="314.00" arrivalLane="52i_1" arrivalPos="10.00" arrivalSpeed="11.87" duration="91.00" routeLength="1015.04" waitingTime="0.00" waitingCount="0" stopTime="0.00" timeLoss="14.62" rerouteNo="0" devices="tripinfo_NE_4" vType="cars" speedFactor="1.01" vaporized=""/>
    <tripinfo id="NS_6" depart="206.00" departLane="54o_0" departPos="5.10" departSpeed="0.00" departDelay="0.00" arrival="321.00" arrivalLane="53i_0" arrivalPos="10.00" arrivalSpeed="9.61" duration="115.00" routeLength="1015.18" waitingTime="6.00" waitingCount="1" stopTime="0.00" timeLoss="29.57" rerouteNo="0" devices="tripinfo_NS_6" vType="cars" speedFactor="0.83" vaporized=""/>
    <tripinfo id="SN_9" depart="242.00" departLane="53o_0" departPos="5.10" departSpeed="0.00" departDelay="0.00" arrival="340.00" arrivalLane="54i_0" arrivalPos="10.00" arrivalSpeed="10.08" duration="98.00" routeLength="1015.18" waitingTime="0.00" waitingCount="0" stopTime="0.00" timeLoss="15.27" rerouteNo="0" devices="tripinfo_SN_9" vType="cars" speedFactor="0.88" vaporized=""/>
    <tripinfo id="WE_7" depart="171.00" departLane="51o_0" departPos="5.10" departSpeed="0.00" departDelay="0.00" arrival="359.00" arrivalLane="52i_0" arrivalPos="10.00" arrivalSpeed="13.10" duration="188.00" routeLength="1015.18" waitingTime="89.00" waitingCount="1" stopTime="0.00" timeLoss="117.08" rerouteNo="0" devices="tripinfo_WE_7" vType="cars" speedFactor="1.14" vaporized=""/>
    <tripinfo id="EN_3" depart="149.00" departLane="52o_0" departPos="5.10" departSpeed="0.00" departDelay="0.00" arrival="360.00" arrivalLane="54i_0" arrivalPos="10.00" arrivalSpeed="11.44" duration="211.00" routeLength="996.93" waitingTime="112.00" waitingCount="1" stopTime="0.00" timeLoss="136.29" rerouteNo="0" devices="tripinfo_EN_3" vType="cars" speedFactor="1.02" vaporized=""/>
    <tripinfo id="WE_6" depart="161.00" departLane="51o_0" departPos="5.10" departSpeed="0.00" departDelay="0.00" arrival="361.00" arrivalLane="52i_0" arrivalPos="10.00" arrivalSpeed="12.11" duration="200.00" routeLength="1015.18" waitingTime="100.00" waitingCount="1" stopTime="0.00" timeLoss="127.04" rerouteNo="0" devices="tripinfo_WE_6" vType="cars" speedFactor="1.08" vaporized=""/>
    <tripinfo id="EW_7" depart="172.00" departLane="52o_0" departPos="5.10" departSpeed="0.00" departDelay="0.00" arrival="362.00" arrivalLane="51i_0" arrivalPos="10.00" arrivalSpeed="12.19" duration="190.00" routeLength="1015.18" waitingTime="89.00" waitingCount="1" stopTime="0.00" timeLoss="117.21" rerouteNo="0" devices="tripinfo_EW_7" vType="cars" speedFactor="1.08" vaporized=""/>
    <tripinfo id="EW_6" depart="157.00" departLane="52o_0" departPos="5.10" departSpeed="0.00" departDelay="0.00" arrival="365.00" arrivalLane="51i_0" arrivalPos="10.00" arrivalSpeed="10.99" duration="208.00" routeLength="1015.18" waitingTime="104.00" waitingCount="1" stopTime="0.00" timeLoss="130.02" rerouteNo="0" devices="tripinfo_EW_6" vType="cars" speedFactor="0.96" vaporized=""/>
    <tripinfo id="EW_8" depart="177.00" departLane="52o_0" departPos="5.10" departSpeed="0.00" departDelay="1.00" arrival="365.00" arrivalLane="51i_1" arrivalPos="10.00" arrivalSpeed="11.60" duration="188.00" routeLength="1015.18" waitingTime="85.00" waitingCount="1" stopTime="0.00" timeLoss="112.25" rerouteNo="0" devices="tripinfo_EW_8" vType="cars" speedFactor="1.00" vaporized=""/>
    <tripinfo id="WE_8" depart="197.00" departLane="51o_0" departPos="5.10" departSpeed="0.00" departDelay="0.00" arrival="365.00" arrivalLane="52i_0" arrivalPos="10.00" arrivalSpeed="10.98" duration="168.00" routeLength="1015.18" waitingTime="64.00" waitingCount="1" stopTime="0.00" timeLoss="92.39" rerouteNo="0" devices="tripinfo_WE_8" vType="cars" speedFactor="1.01" vaporized=""/>
    <tripinfo id="WN_9" depart="222.00" departLane="51o_2" departPos="5.10" departSpeed="0.00" departDelay="0.00" arrival="369.00" arrivalLane="54i_0" arrivalPos="10.00" arrivalSpeed="13.34" duration="147.00" routeLength="1015.04" waitingTime="41.00" waitingCount="2" stopTime="0.00" timeLoss="75.92" rerouteNo="0" devices="tripinfo_WN_9" vType="cars" speedFactor="1.14" vaporized=""/>
    <tripinfo id="ES_2" depart="229.00" departLane="52o_2" departPos="5.10" departSpeed="0.00" departDelay="0.00" arrival="372.00" arrivalLane="53i_0" arrivalPos="10.00" arrivalSpeed="11.58" duration="143.00" routeLength="1015.04" waitingTime="36.00" waitingCount="2" stopTime="0.00" timeLoss="67.65" rerouteNo="0" devices="tripinfo_ES_2" vType="cars" speedFactor="1.02" vaporized=""/>
    <tripinfo id="ES_3" depart="270.00" departLane="52o_2" departPos="5.10" departSpeed="0.00" departDelay="0.00" arrival="372.00" arrivalLane="53i_1" arrivalPos="10.00" arrivalSpeed="12.40" duration="102.00" routeLength="1015.04" waitingTime="2.00" waitingCount="1" stopTime="0.00" timeLoss="28.99" rerouteNo="0" devices="tripinfo_ES_3" vType="cars" speedFactor="1.10" vaporized=""/>
    <tripinfo id="WN_10" depart="227.00" departLane="51o_2" departPos="5.10" departSpeed="0.00" departDelay="4.00" arrival="373.00" arrivalLane="54i_0" arrivalPos="10.00" arrivalSpeed="12.20" duration="146.00" routeLength="1015.04" waitingTime="38.00" waitingCount="2" stopTime="0.00" timeLoss="72.22" rerouteNo="0" devices="tripinfo_WN_10" vType="cars" speedFactor="1.06" vaporized=""/>
    <tripinfo id="WE_9" depart="206.00" departLane="51o_0" departPos="5.10" departSpeed="0.00" departDelay="0.00" arrival="378.00" arrivalLane="52i_0" arrivalPos="10.00" arrivalSpeed="8.94" duration="172.00" routeLength="1015.18" waitingTime="55.00" waitingCount="1" stopTime="0.00" timeLoss="80.27" rerouteNo="0" devices="tripinfo_WE_9" vType="cars" speedFactor="0.78" vaporized=""/>
    <tripinfo id="SN_11" depart="280.00" departLane="53o_0" departPos="5.10" departSpeed="0.00" departDelay="0.00" arrival="380.00" arrivalLane="54i_0" arrivalPos="10.00" arrivalSpeed="10.78" duration="100.00" routeLength="1015.18" waitingTime="0.00" waitingCount="0" stopTime="0.00" timeLoss="21.02" rerouteNo="0" devices="tripinfo_SN_11" vType="cars" speedFactor="0.94" vaporized=""/>
    <tripinfo id="NS_7" depart="254.00" departLane="54o_0" departPos="5.10" departSpeed="0.00" departDelay="0.00" arrival="383.00" arrivalLane="53i_0" arrivalPos="10.00" arrivalSpeed="11.60" duration="129.00" routeLength="1015.18" waitingTime="27.00" waitingCount="1" stopTime="0.00" timeLoss="52.94" rerouteNo="0" devices="tripinfo_NS_7" vType="cars" speedFactor="1.01" vaporized=""/>
    <tripinfo id="NS_8" depart="273.00" departLane="54o_0" departPos="5.10" departSpeed="0.00" departDelay="0.00" arrival="383.00" arrivalLane="53i_1" arrivalPos="10.00" arrivalSpeed="11.38" duration="110.00" routeLength="1015.18" waitingTime="8.00" waitingCount="1" stopTime="0.00" timeLoss="33.20" rerouteNo="0" devices="tripinfo_NS_8" vType="cars" speedFactor="0.98" vaporized=""/>
    <tripinfo id="SN_10" depart="273.00" departLane="53o_0" departPos="5.10" departSpeed="0.00" departDelay="0.00" arrival="383.00" arrivalLane="54i_0" arrivalPos="10.00" arrivalSpeed="11.44" duration="110.00" routeLength="1015.18" waitingTime="9.00" waitingCount="1" stopTime="0.00" timeLoss="34.93" rerouteNo="0" devices="tripinfo_SN_10" vType="cars" speedFactor="1.01" vaporized=""/>
    <tripinfo id="NW_5" depart="260.00" departLane="54o_0" departPos="5.10" departSpeed="0.00" departDelay="0.00" arrival="385.00" arrivalLane="51i_0" arrivalPos="10.00" arrivalSpeed="10.88" duration="125.00" routeLength="996.93" waitingTime="22.00" waitingCount="1" stopTime="0.00" timeLoss="47.30" rerouteNo="0" devices="tripinfo_NW_5" vType="cars" speedFactor="0.96" vaporized=""/>