<?xml version="1.0" encoding="UTF-8"?>

<!-- generated on 2026-05-11T21:35:08.937385+05:30 by Eclipse SUMO sumo 1.26.0
<sumoConfiguration xmlns:xsi="http://www.w3.org/2001/XMLSchema-instance" xsi:noNamespaceSchemaLocation="http://sumo.dlr.de/xsd/sumoConfiguration.xsd">

    <input>
        <net-file value="../../maps/maps1/cross.net.xml"/>
        <route-files value="../../maps/maps1/cross.rou.xml"/>
    </input>

    <output>
        <tripinfo-output value="random_tripinfo.xml"/>
    </output>

    <processing>
        <time-to-teleport value="-1"/>
        <waiting-time-memory value="1000"/>
        <max-depart-delay value="-1"/>
    </processing>

    <traci_server>
        <remote-port value="56436"/>
    </traci_server>

    <random_number>
        <random value="true"/>
    </random_number>

</sumoConfiguration>
-->

<tripinfos xmlns:xsi="http://www.w3.org/2001/XMLSchema-instance" xsi:noNamespaceSchemaLocation="http://sumo.dlr.de/xsd/tripinfo_file.xsd">
    <tripinfo id="SN_0" depart="0.00" departLane="53o_0" departPos="5.10" departSpeed="0.00" departDelay="0.00" arrival="82.00" arrivalLane="54i_0" arrivalPos="10.00" arrivalSpeed="14.03" duration="82.00" routeLength="1015.18" waitingTime="0.00" waitingCount="0" stopTime="0.00" timeLoss="14.69" rerouteNo="0" devices="tripinfo_SN_0" vType="cars" speedFactor="1.24" vaporized=""/>
    <tripinfo id="NS_0" depart="1.00" departLane="54o_0" departPos="5.10" departSpeed="0.00" departDelay="0.00" arrival="87.00" arrivalLane="53i_0" arrivalPos="10.00" arrivalSpeed="12.15" duration="86.00" routeLength="1015.18" waitingTime="0.00" waitingCount="0" stopTime="0.00" timeLoss="14.74" rerouteNo="0" devices="tripinfo_NS_0" vType="cars" speedFactor="1.11" vaporized=""/>
    <tripinfo id="WN_0" depart="8.00" departLane="51o_2" departPos="5.10" departSpeed="0.00" departDelay="0.00" arrival="130.00" arrivalLane="54i_0" arrivalPos="10.00" arrivalSpeed="10.07" duration="122.00" routeLength="1015.04" waitingTime="12.00" waitingCount="1" stopTime="0.00" timeLoss="38.77" rerouteNo="0" devices="tripinfo_WN_0" vType="cars" speedFactor="0.87" vaporized=""/>
    <tripinfo id="WE_1" depart="16.00" departLane="51o_0" departPos="5.10" departSpeed="0.00" departDelay="0.00" arrival="130.00" arrivalLane="52i_0" arrivalPos="10.00" arrivalSpeed="12.37" duration="114.00" routeLength="1015.18" waitingTime="14.00" waitingCount="1" stopTime="0.00" timeLoss="41.68" rerouteNo="0" devices="tripinfo_WE_1" vType="cars" speedFactor="1.08" vaporized=""/>
    <tripinfo id="WN_1" depart="24.00" departLane="51o_2" departPos="5.10" departSpeed="0.00" departDelay="0.00" arrival="130.00" arrivalLane="54i_1" arrivalPos="10.00" arrivalSpeed="10.24" duration="106.00" routeLength="1015.04" waitingTime="0.00" waitingCount="0" stopTime="0.00" timeLoss="24.51" rerouteNo="0" devices="tripinfo_WN_1" vType="cars" speedFactor="0.90" vaporized=""/>
    <tripinfo id="WE_2" depart="39.00" departLane="51o_0" departPos="5.10" departSpeed="0.00" departDelay="0.00" arrival="130.00" arrivalLane="52i_2" arrivalPos="10.00" arrivalSpeed="13.30" duration="91.00" routeLength="1015.18" waitingTime="0.00" waitingCount="0" stopTime="0.00" timeLoss="20.65" rerouteNo="0" devices="tripinfo_WE_2" vType="cars" speedFactor="1.14" vaporized=""/>
    <tripinfo id="WE_0" depart="10.00" departLane="51o_0" departPos="5.10" departSpeed="0.00" departDelay="0.00" arrival="132.00" arrivalLane="52i_0" arrivalPos="10.00" arrivalSpeed="12.04" duration="122.00" routeLength="1015.18" waitingTime="20.00" waitingCount="1" stopTime="0.00" timeLoss="47.41" rerouteNo="0" devices="tripinfo_WE_0" vType="cars" speedFactor="1.03" vaporized=""/>
    <tripinfo id="EW_0" depart="3.00" departLane="52o_0" departPos="5.10" departSpeed="0.00" departDelay="0.00" arrival="135.00" arrivalLane="51i_0" arrivalPos="10.00" arrivalSpeed="11.23" duration="132.00" routeLength="1015.18" waitingTime="27.00" waitingCount="1" stopTime="0.00" timeLoss="54.10" rerouteNo="0" devices="tripinfo_EW_0" vType="cars" speedFactor="0.95" vaporized=""/>
    <tripinfo id="EW_1" depart="26.00" departLane="52o_0" departPos="5.10" departSpeed="0.00" departDelay="0.00" arrival="136.00" arrivalLane="51i_0" arrivalPos="10.00" arrivalSpeed="10.87" duration="110.00" routeLength="1015.18" waitingTime="5.00" waitingCount="1" stopTime="0.00" timeLoss="30.49" rerouteNo="0" devices="tripinfo_EW_1" vType="cars" speedFactor="0.93" vaporized=""/>
    <tripinfo id="NE_0" depart="23.00" departLane="54o_2" departPos="5.10" departSpeed="0.00" departDelay="0.00" arrival="150.00" arrivalLane="52i_0" arrivalPos="10.00" arrivalSpeed="12.39" duration="127.00" routeLength="1015.04" waitingTime="28.00" waitingCount="1" stopTime="0.00" timeLoss="53.52" rerouteNo="0" devices="tripinfo_NE_0" vType="cars" speedFactor="1.07" vaporized=""/>
    <tripinfo id="SW_0" depart="29.00" departLane="53o_2" departPos="5.10" departSpeed="0.00" departDelay="0.00" arrival="155.00" arrivalLane="51i_0" arrivalPos="10.00" arrivalSpeed="11.21" duration="126.00" routeLength="1015.04" waitingTime="21.00" waitingCount="1" stopTime="0.00" timeLoss="47.68" rerouteNo="0" devices="tripinfo_SW_0" vType="cars" speedFactor="0.97" vaporized=""/>
    <tripinfo id="NE_2" depart="51.00" departLane="54o_2" departPos="5.10" departSpeed="0.00" departDelay="0.00" arrival="156.00" arrivalLane="52i_0" arrivalPos="10.00" arrivalSpeed="11.73" duration="105.00" routeLength="1015.04" waitingTime="3.00" waitingCount="1" stopTime="0.00" timeLoss="30.11" rerouteNo="0" devices="tripinfo_NE_2" vType="cars" speedFactor="1.05" vaporized=""/>
    <tripinfo id="NE_1" depart="34.00" departLane="54o_2" departPos="5.10" departSpeed="0.00" departDelay="0.00" arrival="158.00" arrivalLane="52i_0" arrivalPos="10.00" arrivalSpeed="11.11" duration="124.00" routeLength="1015.04" waitingTime="18.00" waitingCount="1" stopTime="0.00" timeLoss="44.83" rerouteNo="0" devices="tripinfo_NE_1" vType="cars" speedFactor="0.94" vaporized=""/>
    <tripinfo id="SN_1" depart="42.00" departLane="53o_0" departPos="5.10" departSpeed="0.00" departDelay="0.00" arrival="167.00" arrivalLane="54i_0" arrivalPos="10.00" arrivalSpeed="13.45" duration="125.00" routeLength="1015.18" waitingTime="29.00" waitingCount="1" stopTime="0.00" timeLoss="55.66" rerouteNo="0" devices="tripinfo_SN_1" vType="cars" speedFactor="1.18" vaporized=""/>
    <tripinfo id="NW_0" depart="71.00" departLane="54o_0" departPos="5.10" departSpeed="0.00" departDelay="0.00" arrival="168.00" arrivalLane="51i_0" arrivalPos="10.00" arrivalSpeed="11.53" duration="97.00" routeLength="996.93" waitingTime="0.00" waitingCount="0" stopTime="0.00" timeLoss="20.93" rerouteNo="0" devices="tripinfo_NW_0" vType="cars" speedFactor="0.99" vaporized=""/>
    <tripinfo id="SN_2" depart="47.00" departLane="53o_0" departPos="5.10" departSpeed="0.00" departDelay="0.00" arrival="171.00" arrivalLane="54i_0" arrivalPos="10.00" arrivalSpeed="12.88" duration="124.00" routeLength="1015.18" waitingTime="25.00" waitingCount="1" stopTime="0.00" timeLoss="53.19" rerouteNo="0" devices="tripinfo_SN_2" vType="cars" speedFactor="1.12" vaporized=""/>
    <tripinfo id="SE_0" depart="21.00" departLane="53o_0" departPos="5.10" departSpeed="0.00" departDelay="0.00" arrival="175.00" arrivalLane="52i_0" arrivalPos="10.00" arrivalSpeed="11.20" duration="154.00" routeLength="996.93" waitingTime="50.00" waitingCount="1" stopTime="0.00" timeLoss="75.64" rerouteNo="0" devices="tripinfo_SE_0" vType="cars" speedFactor="0.95" vaporized=""/>
    <tripinfo id="SE_1" depart="31.00" departLane="53o_0" departPos="5.10" departSpeed="0.00" departDelay="0.00" arrival="176.00" arrivalLane="52i_0" arrivalPos="10.00" arrivalSpeed="11.26" duration="145.00" routeLength="996.93" waitingTime="41.00" waitingCount="1" stopTime="0.00" timeLoss="67.63" rerouteNo="0" devices="tripinfo_SE_1" vType="cars" speedFactor="0.96" vaporized=""/>
    <tripinfo id="NW_1" depart="77.00" departLane="54o_0" departPos="5.10" departSpeed="0.00" departDelay="0.00" arrival="178.00" arrivalLane="51i_0" arrivalPos="10.00" arrivalSpeed="10.15" duration="101.00" routeLength="996.93" waitingTime="0.00" waitingCount="0" stopTime="0.00" timeLoss="18.23" rerouteNo="0" devices="tripinfo_NW_1" vType="cars" speedFactor="0.87" vaporized=""/>
    <tripinfo id="NS_2" depart="92.00" departLane="54o_1" departPos="5.10" departSpeed="0.00" departDelay="0.00" arrival="179.00" arrivalLane="53i_0" arrivalPos="10.00" arrivalSpeed="13.10" duration="87.00" routeLength="1015.18" waitingTime="0.00" waitingCount="0" stopTime="0.00" timeLoss="16.95" rerouteNo="0" devices="tripinfo_NS_2" vType="cars" speedFactor="1.15" vaporized=""/>
    <tripinfo id="NS_1" depart="91.00" departLane="54o_0" departPos="5.10" departSpeed="0.00" departDelay="0.00" arrival="192.00" arrivalLane="53i_0" arrivalPos="10.00" arrivalSpeed="11.04" duration="101.00" routeLength="1015.18" waitingTime="0.00" waitingCount="0" stopTime="0.00" timeLoss="25.37" rerouteNo="0" devices="tripinfo_NS_1" vType="cars" speedFactor="1.00" vaporized=""/>
    <tripinfo id="SN_3" depart="73.00" departLane="53o_0" departPos="5.10" departSpeed="0.00" departDelay="0.00" arrival="194.00" arrivalLane="54i_0" arrivalPos="10.00" arrivalSpeed="11.60" duration="121.00" routeLength="1015.18" waitingTime="11.00" waitingCount="2" stopTime="0.00" timeLoss="44.80" rerouteNo="0" devices="tripinfo_SN_3" vType="cars" speedFactor="0.99" vaporized=""/>
    <tripinfo id="WN_2" depart="92.00" departLane="51o_2" departPos="5.10" departSpeed="0.00" departDelay="0.00" arrival="203.00" arrivalLane="54i_0" arrivalPos="10.00" arrivalSpeed="11.29" duration="111.00" routeLength="1015.04" waitingTime="8.00" waitingCount="1" stopTime="0.00" timeLoss="34.03" rerouteNo="0" devices="tripinfo_WN_2" vType="cars" speedFactor="0.99" vaporized=""/>
    <tripinfo id="WN_3" depart="97.00" departLane="51o_2" departPos="5.10" departSpeed="0.00" departDelay="2.00" arrival="203.00" arrivalLane="54i_1" arrivalPos="10.00" arrivalSpeed="11.16" duration="106.00" routeLength="1015.04" waitingTime="5.00" waitingCount="1" stopTime="0.00" timeLoss="30.73" rerouteNo="0" devices="tripinfo_WN_3" vType="cars" speedFactor="1.03" vaporized=""/>
    <tripinfo id="ES_0" depart="55.00" departLane="52o_2" departPos="5.10" departSpeed="0.00" departDelay="0.00" arrival="206.00" arrivalLane="53i_1" arrivalPos="10.00" arrivalSpeed="10.76" duration="151.00" routeLength="1015.04" waitingTime="45.00" waitingCount="1" stopTime="0.00" timeLoss="71.97" rerouteNo="0" devices="tripinfo_ES_0" vType="cars" speedFactor="0.95" vaporized=""/>
    <tripinfo id="SN_4" depart="117.00" departLane="53o_0" departPos="5.10" departSpeed="0.00" departDelay="0.00" arrival="207.00" arrivalLane="54i_0" arrivalPos="10.00" arrivalSpeed="11.93" duration="90.00" routeLength="1015.18" waitingTime="0.00" waitingCount="0" stopTime="0.00" timeLoss="15.16" rerouteNo="0" devices="tripinfo_SN_4" vType="cars" speedFactor="1.02" vaporized=""/>
    <tripinfo id="NS_3" depart="96.00" departLane="54o_0" departPos="5.10" departSpeed="0.00" departDelay="2.00" arrival="208.00" arrivalLane="53i_0" arrivalPos="10.00" arrivalSpeed="8.38" duration="112.00" routeLength="1015.18" waitingTime="0.00" waitingCount="0" stopTime="0.00" timeLoss="14.18" rerouteNo="0" devices="tripinfo_NS_3" vType="cars" speedFactor="0.73" vaporized=""/>
    <tripinfo id="WN_4" depart="113.00" departLane="51o_2" departPos="5.10" departSpeed="0.00" departDelay="0.00" arrival="219.00" arrivalLane="54i_0" arrivalPos="10.00" arrivalSpeed="12.21" duration="106.00" routeLength="1015.04" waitingTime="9.00" waitingCount="1" stopTime="0.00" timeLoss="34.58" rerouteNo="0" devices="tripinfo_WN_4" vType="cars" speedFactor="1.12" vaporized=""/>
    <tripinfo id="NW_2" depart="101.00" departLane="54o_0" departPos="5.10" departSpeed="0.00" departDelay="7.00" arrival="223.00" arrivalLane="51i_0" arrivalPos="10.00" arrivalSpeed="9.10" duration="122.00" routeLength="996.93" waitingTime="9.00" waitingCount="1" stopTime="0.00" timeLoss="31.84" rerouteNo="0" devices="tripinfo_NW_2" vType="cars" speedFactor="0.79" vaporized=""/>
    <tripinfo id="WN_6" depart="147.00" departLane="51o_2" departPos="5.10" departSpeed="0.00" departDelay="0.00" arrival="236.00" arrivalLane="54i_0" arrivalPos="10.00" arrivalSpeed="11.96" duration="89.00" routeLength="1015.04" waitingTime="0.00" waitingCount="0" stopTime="0.00" timeLoss="14.17" rerouteNo="0" devices="tripinfo_WN_6" vType="cars" speedFactor="1.04" vaporized=""/>
    <tripinfo id="WN_5" depart="118.00" departLane="51o_2" departPos="5.10" departSpeed="0.00" departDelay="2.00" arrival="240.00" arrivalLane="54i_0" arrivalPos="10.00" arrivalSpeed="8.55" duration="122.00" routeLength="1015.04" waitingTime="1.00" waitingCount="1" stopTime="0.00" timeLoss="24.89" rerouteNo="0" devices="tripinfo_WN_5" vType="cars" speedFactor="0.74" vaporized=""/>
    <tripinfo id="SW_1" depart="160.00" departLane="53o_2" departPos="5.10" departSpeed="0.00" departDelay="0.00" arrival="257.00" arrivalLane="51i_0" arrivalPos="10.00" arrivalSpeed="10.22" duration="97.00" routeLength="1015.04" waitingTime="0.00" waitingCount="0" stopTime="0.00" timeLoss="15.38" rerouteNo="0" devices="tripinfo_SW_1" vType="cars" speedFactor="0.90" vaporized=""/>
    <tripinfo id="WE_3" depart="42.00" departLane="51o_1" departPos="5.10" departSpeed="0.00" departDelay="0.00" arrival="259.00" arrivalLane="52i_0" arrivalPos="10.00" arrivalSpeed="12.81" duration="217.00" routeLength="1015.18" waitingTime="118.00" waitingCount="1" stopTime="0.00" timeLoss="146.10" rerouteNo="0" devices="tripinfo_WE_3" vType="cars" speedFactor="1.12" vaporized=""/>
    <tripinfo id="WE_4" depart="84.00" departLane="51o_0" departPos="5.10" departSpeed="0.00" departDelay="0.00" arrival="260.00" arrivalLane="52i_0" arrivalPos="10.00" arrivalSpeed="12.23" duration="176.00" routeLength="1015.18" waitingTime="76.00" waitingCount="1" stopTime="0.00" timeLoss="103.32" rerouteNo="0" devices="tripinfo_WE_4" vType="cars" speedFactor="1.08" vaporized=""/>
    <tripinfo id="EW_2" depart="53.00" departLane="52o_0" departPos="5.10" departSpeed="0.00" departDelay="0.00" arrival="262.00" arrivalLane="51i_0" arrivalPos="10.00" arrivalSpeed="12.26" duration="209.00" routeLength="1015.18" waitingTime="107.00" waitingCount="1" stopTime="0.00" timeLoss="134.68" rerouteNo="0" devices="tripinfo_EW_2" vType="cars" speedFactor="1.04" vaporized=""/>
    <tripinfo id="EW_3" depart="70.00" departLane="52o_0" departPos="5.10" departSpeed="0.00" departDelay="0.00" arrival="263.00" arrivalLane="51i_1" arrivalPos="10.00" arrivalSpeed="11.46" duration="193.00" routeLength="1015.18" waitingTime="93.00" waitingCount="1" stopTime="0.00" timeLoss="119.58" rerouteNo="0" devices="tripinfo_EW_3" vType="cars" speedFactor="1.06" vaporized=""/>
    <tripinfo id="WE_5" depart="140.00" departLane="51o_0" departPos="5.10" departSpeed="0.00" departDelay="0.00" arrival="265.00" arrivalLane="52i_0" arrivalPos="10.00" arrivalSpeed="10.82" duration="125.00" routeLength="1015.18" waitingTime="21.00" waitingCount="1" stopTime="0.00" timeLoss="48.70" rerouteNo="0" devices="tripinfo_WE_5" vType="cars" speedFactor="0.99" vaporized=""/>
    <tripinfo id="EW_4" depart="93.00" departLane="52o_0" departPos="5.10" departSpeed="0.00" departDelay="0.00" arrival="267.00" arrivalLane="51i_0" arrivalPos="10.00" arrivalSpeed="11.52" duration="174.00" routeLength="1015.18" waitingTime="69.00" waitingCount="1" stopTime="0.00" timeLoss="96.97" rerouteNo="0" devices="tripinfo_EW_4" vType="cars" speedFactor="0.98" vaporized=""/>
    <tripinfo id="NW_3" depart="166.00" departLane="54o_0" departPos="5.10" departSpeed="0.00" departDelay="0.00" arrival="268.00" arrivalLane="51i_1" arrivalPos="10.00" arrivalSpeed="13.55" duration="102.00" routeLength="996.93" waitingTime="7.00" waitingCount="1" stopTime="0.00" timeLoss="33.19" rerouteNo="0" devices="tripinfo_NW_3" vType="cars" speedFactor="1.19" vaporized=""/>
    <tripinfo id="NS_5" depart="159.00" departLane="54o_0" departPos="5.10" departSpeed="0.00" departDelay="0.00" arrival="270.00" arrivalLane="53i_1" arrivalPos="10.00" arrivalSpeed="13.75" duration="111.00" routeLength="1015.18" waitingTime="12.00" waitingCount="1" stopTime="0.00" timeLoss="41.80" rerouteNo="0" devices="tripinfo_NS_5" vType="cars" speedFactor="1.19" vaporized=""/>
    <tripinfo id="WE_6" depart="161.00" departLane="51o_0" departPos="5.10" departSpeed="0.00" departDelay="0.00" arrival="274.00" arrivalLane="52i_0" arrivalPos="10.00" arrivalSpeed="9.45" duration="113.00" routeLength="1015.18" waitingTime="0.00" waitingCount="0" stopTime="0.00" timeLoss="25.42" rerouteNo="0" devices="tripinfo_WE_6" vType="cars" speedFactor="0.82" vaporized=""/>
    <tripinfo id="NW_4" depart="171.00" departLane="54o_0" departPos="5.10" departSpeed="0.00" departDelay="0.00" arrival="274.00" arrivalLane="51i_0" arrivalPos="10.00" arrivalSpeed="11.92" duration="103.00" routeLength="996.93" waitingTime="3.00" waitingCount="1" stopTime="0.00" timeLoss="29.14" rerouteNo="0" devices="tripinfo_NW_4" vType="cars" speedFactor="1.05" vaporized=""/>
    <tripinfo id="ES_1" depart="172.00" departLane="52o_2" departPos="5.10" departSpeed="0.00" departDelay="0.00" arrival="274.00" arrivalLane="53i_0" arrivalPos="10.00" arrivalSpeed="10.15" duration="102.00" routeLength="1015.04" waitingTime="0.00" waitingCount="0" stopTime="0.00" timeLoss="20.85" rerouteNo="0" devices="tripinfo_ES_1" vType="cars" speedFactor="0.90" vaporized=""/>
    <tripinfo id="EN_0" depart="48.00" departLane="52o_0" departPos="5.10" departSpeed="0.00" departDelay="0.00" arrival="275.00" arrivalLane="54i_0" arrivalPos="10.00" arrivalSpeed="9.40" duration="227.00" routeLength="996.93" waitingTime="109.00" waitingCount="1" stopTime="0.00" timeLoss="132.32" rerouteNo="0" devices="tripinfo_EN_0" vType="cars" speedFactor="0.75" vaporized=""/>
    <tripinfo id="SN_5" depart="130.00" departLane="53o_0" departPos="5.10" departSpeed="0.00" departDelay="0.00" arrival="276.00" arrivalLane="54i_0" arrivalPos="10.00" arrivalSpeed="9.46" duration="146.00" routeLength="1015.18" waitingTime="42.00" waitingCount="1" stopTime="0.00" timeLoss="69.36" rerouteNo="0" devices="tripinfo_SN_5" vType="cars" speedFactor="0.98" vaporized=""/>
    <tripinfo id="SN_6" depart="135.00" departLane="53o_0" departPos="5.10" departSpeed="0.00" departDelay="1.00" arrival="277.00" arrivalLane="54i_0" arrivalPos="10.00" arrivalSpeed="10.65" duration="142.00" routeLength="1015.18" waitingTime="35.00" waitingCount="1" stopTime="0.00" timeLoss="63.32" rerouteNo="0" devices="tripinfo_SN_6" vType="cars" speedFactor="0.95" vaporized=""/>
    <tripinfo id="NS_4" depart="152.00" departLane="54o_0" departPos="5.10" departSpeed="0.00" departDelay="0.00" arrival="277.00" arrivalLane="53i_0" arrivalPos="10.00" arrivalSpeed="10.40" duration="125.00" routeLength="1015.18" waitingTime="18.00" waitingCount="1" stopTime="0.00" timeLoss="44.74" rerouteNo="0" devices="tripinfo_NS_4" vType="cars" speedFactor="0.92" vaporized=""/>
    <tripinfo id="SN_8" depart="174.00" departLane="53o_0" departPos="5.10" departSpeed="0.00" departDelay="0.00" arrival="277.00" arrivalLane="54i_2" arrivalPos="10.00" arrivalSpeed="11.41" duration="103.00" routeLength="1015.18" waitingTime="0.00" waitingCount="0" stopTime="0.00" timeLoss="26.40" rerouteNo="0" devices="tripinfo_SN_8" vType="cars" speedFactor="0.99" vaporized=""/>
    <tripinfo id="SN_7" depart="157.00" departLane="53o_0" departPos="5.10" departSpeed="0.00" departDelay="0.00" arrival="278.00" arrivalLane="54i_0" arrivalPos="10.00" arrivalSpeed="9.85" duration="121.00" routeLength="1015.18" waitingTime="15.00" waitingCount="1" stopTime="0.00" timeLoss="44.91" rerouteNo="0" devices="tripinfo_SN_7" vType="cars" speedFactor="0.99" vaporized=""/>
    <tripinfo id="NE_3" depart="172.00" departLane="54o_2" departPos="5.10" departSpeed="0.00" departDelay="0.00" arrival="279.00" arrivalLane="52i_0" arrivalPos="10.00" arrivalSpeed="13.61" duration="107.00" routeLength="1015.04" waitingTime="8.00" waitingCount="1" stopTime="0.00" timeLoss="37.75" rerouteNo="0" devices="tripinfo_NE_3" vType="cars" speedFactor="1.21" vaporized=""/>
    <tripinfo id="EN_1" depart="83.00" departLane="52o_0" departPos="5.10" departSpeed="0.00" departDelay="0.00" arrival="283.00" arrivalLane="54i_0" arrivalPos="10.00" arrivalSpeed="12.98" duration="200.00" routeLength="996.93" waitingTime="95.00" waitingCount="2" stopTime="0.00" timeLoss="128.78" rerouteNo="0" devices="tripinfo_EN_1" vType="cars" speedFactor="1.10" vaporized=""/>
    <tripinfo id="EN_2" depart="114.00" departLane="52o_0" departPos="5.10" departSpeed="0.00" departDelay="0.00" arrival="286.00" arrivalLane="54i_0" arrivalPos="10.00" arrivalSpeed="12.58" duration="172.00" routeLength="996.93" waitingTime="67.00" waitingCount="2" stopTime="0.00" timeLoss="99.93" rerouteNo="0" devices="tripinfo_EN_2" vType="cars" speedFactor="1.09" vaporized=""/>
    <tripinfo id="WN_7" depart="197.00" departLane="51o_2" departPos="5.10" departSpeed="0.00" departDelay="0.00" arrival="288.00" arrivalLane="54i_0" arrivalPos="10.00" arrivalSpeed="12.55" duration="91.00" routeLength="1015.04" waitingTime="0.00" waitingCount="0" stopTime="0.00" timeLoss="17.67" rerouteNo="0" devices="tripinfo_WN_7" vType="cars" speedFactor="1.08" vaporized=""/>
    <tripinfo id="EW_5" depart="122.00" departLane="52o_0" departPos="5.10" departSpeed="0.00" departDelay="0.00" arrival="294.00" arrivalLane="51i_0" arrivalPos="10.00" arrivalSpeed="10.23" duration="172.00" routeLength="1015.18" waitingTime="56.00" waitingCount="2" stopTime="0.00" timeLoss="89.13" rerouteNo="0" devices="tripinfo_EW_5" vType="cars" speedFactor="0.87" vaporized=""/>
    <tripinfo id="WE_7" depart="171.00" departLane="51o_0" departPos="5.10" departSpeed="0.00" departDelay="0.00" arrival="294.00" arrivalLane="52i_0" arrivalPos="10.00" arrivalSpeed="10.19" duration="123.00" routeLength="1015.18" waitingTime="14.00" waitingCount="1" stopTime="0.00" timeLoss="41.91" rerouteNo="0" devices="tripinfo_WE_7" vType="cars" speedFactor="0.89" vaporized=""/>
    <tripinfo id="WE_8" depart="197.00" departLane="51o_0" departPos="5.10" departSpeed="0.00" departDelay="0.00" arrival="294.00" arrivalLane="52i_1" arrivalPos="10.00" arrivalSpeed="10.11" duration="97.00" routeLength="1015.18" waitingTime="0.00" waitingCount="0" stopTime="0.00" timeLoss="15.10" rerouteNo="0" devices="tripinfo_WE_8" vType="cars" speedFactor="0.89" vaporized=""/>
    <tripinfo id="EW_6" depart="157.00" departLane="52o_0" departPos="5.10" departSpeed="0.00" departDelay="0.00" arrival="298.00" arrivalLane="51i_0" arrivalPos="10.00" arrivalSpeed="10.00" duration="141.00" routeLength="1015.18" waitingTime="20.00" waitingCount="2" stopTime="0.00" timeLoss="55.47" rerouteNo="0" devices="tripinfo_EW_6" vType="cars" speedFactor="0.84" vaporized=""/>
    <tripinfo id="WN_9" depart="222.00" departLane="51o_2" departPos="5.10" departSpeed="0.00" departDelay="0.00" arrival="315.00" arrivalLane="54i_0" arrivalPos="10.00" arrivalSpeed="13.22" duration="93.00" routeLength="1015.04" waitingTime="0.00" waitingCount="0" stopTime="0.00" timeLoss="22.86" rerouteNo="0" devices="tripinfo_WN_9" vType="cars" speedFactor="1.16" vaporized=""/>
    <tripinfo id="WN_8" depart="208.00" departLane="51o_2" departPos="5.10" departSpeed="0.00" departDelay="0.00" arrival="321.00" arrivalLane="54i_0" arrivalPos="10.00" arrivalSpeed="11.14" duration="113.00" routeLength="1015.04" waitingTime="7.00" waitingCount="1" stopTime="0.00" timeLoss="33.85" rerouteNo="0" devices="tripinfo_WN_8" vType="cars" speedFactor="0.95" vaporized=""/>
    <tripinfo id="WE_9" depart="206.00" departLane="51o_0" departPos="5.10" departSpeed="0.00" departDelay="0.00" arrival="323.00" arrivalLane="52i_0" arrivalPos="10.00" arrivalSpeed="13.37" duration="117.00" routeLength="1015.18" waitingTime="19.00" waitingCount="1" stopTime="0.00" timeLoss="46.73" rerouteNo="0" devices="tripinfo_WE_9" vType="cars" speedFactor="1.14" vaporized=""/>
    <tripinfo id="EN_3" depart="149.00" departLane="52o_0" departPos="5.10" departSpeed="0.00" departDelay="0.00" arrival="326.00" arrivalLane="54i_0" arrivalPos="10.00" arrivalSpeed="11.30" duration="177.00" routeLength="996.93" waitingTime="59.00" waitingCount="3" stopTime="0.00" timeLoss="101.06" rerouteNo="0" devices="tripinfo_EN_3" vType="cars" speedFactor="0.99" vaporized=""/>
    <tripinfo id="EW_7" depart="172.00" departLane="52o_0" departPos="5.10" departSpeed="0.00" departDelay="0.00" arrival="327.00" arrivalLane="51i_0" arrivalPos="10.00" arrivalSpeed="12.42" duration="155.00" routeLength="1015.18" waitingTime="43.00" waitingCount="2" stopTime="0.00" timeLoss="81.64" rerouteNo="0" devices="tripinfo_EW_7" vType="cars" speedFactor="1.07" vaporized=""/>
    <tripinfo id="EW_9" depart="180.00" departLane="52o_1" departPos="5.10" departSpeed="0.00" departDelay="0.00" arrival="328.00" arrivalLane="51i_1" arrivalPos="10.00" arrivalSpeed="12.66" duration="148.00" routeLength="1015.18" waitingTime="38.00" waitingCount="2" stopTime="0.00" timeLoss="75.73" rerouteNo="0" devices="tripinfo_EW_9" vType="cars" speedFactor="1.10" vaporized=""/>
    <tripinfo id="EW_8" depart="177.00" departLane="52o_0" departPos="5.10" departSpeed="0.00" departDelay="1.00" arrival="334.00" arrivalLane="51i_0" arrivalPos="10.00" arrivalSpeed="10.81" duration="157.00" routeLength="1015.18" waitingTime="40.00" waitingCount="2" stopTime="0.00" timeLoss="76.78" rerouteNo="0" devices="tripinfo_EW_8" vType="cars" speedFactor="0.92" vaporized=""/>
    <tripinfo id="WE_10" depart="214.00" departLane="51o_0" departPos="5.10" departSpeed="0.00" departDelay="0.00" arrival="335.00" arrivalLane="52i_0" arrivalPos="10.00" arrivalSpeed="9.54" duration="121.00" routeLength="1015.18" waitingTime="12.00" waitingCount="1" stopTime="0.00" timeLoss="37.44" rerouteNo="0" devices="tripinfo_WE_10" vType="cars" speedFactor="0.85" vaporized=""/>
    <tripinfo id="ES_2" depart="229.00" departLane="52o_2" departPos="5.10" departSpeed="0.00" departDelay="0.00" arrival="335.00" arrivalLane="53i_0" arrivalPos="10.00" arrivalSpeed="11.84" duration="106.00" routeLength="1015.04" waitingTime="3.00" waitingCount="1" stopTime="0.00" timeLoss="30.13" rerouteNo="0" devices="tripinfo_ES_2" vType="cars" speedFactor="1.02" vaporized=""/>
    <tripinfo id="WN_10" depart="227.00" departLane="51o_2" departPos="5.10" departSpeed="0.00" departDelay="4.00" arrival="341.00" arrivalLane="54i_0" arrivalPos="10.00" arrivalSpeed="11.12" duration="114.00" routeLength="1015.04" waitingTime="9.00" waitingCount="1" stopTime="0.00" timeLoss="34.75" rerouteNo="0" devices="tripinfo_WN_10" vType="cars" speedFactor="0.95" vaporized=""/>
    <tripinfo id="NS_7" depart="254.00" departLane="54o_0" departPos="5.10" departSpeed="0.00" departDelay="0.00" arrival="342.00" arrivalLane="53i_0" arrivalPos="10.00" arrivalSpeed="12.42" duration="88.00" routeLength="1015.18" waitingTime="0.00" waitingCount="0" stopTime="0.00" timeLoss="14.98" rerouteNo="0" devices="tripinfo_NS_7" vType="cars" speedFactor="1.07" vaporized=""/>
    <tripinfo id="SN_9" depart="242.00" departLane="53o_0" departPos="5.10" departSpeed="0.00" departDelay="0.00" arrival="350.00" arrivalLane="54i_0" arrivalPos="10.00" arrivalSpeed="12.15" duration="108.00" routeLength="1015.18" waitingTime="9.00" waitingCount="1" stopTime="0.00" timeLoss="35.00" rerouteNo="0" devices="tripinfo_SN_9" vType="cars" speedFactor="1.08" vaporized=""/>
    <tripinfo id="SE_2" depart="209.00" departLane="53o_0" departPos="5.10" departSpeed="0.00" departDelay="0.00" arrival="351.00" arrivalLane="52i_0" arrivalPos="10.00" arrivalSpeed="11.85" duration="142.00" routeLength="996.93" waitingTime="41.00" waitingCount="1" stopTime="0.00" timeLoss="67.52" rerouteNo="0" devices="tripinfo_SE_2" vType="cars" speedFactor="1.03" vaporized=""/>
    <tripinfo id="NW_5" depart="260.00" departLane="54o_0" departPos="5.10" departSpeed="0.00" departDelay="0.00" arrival="351.00" arrivalLane="51i_0" arrivalPos="10.00" arrivalSpeed="11.63" duration="91.00" routeLength="996.93" waitingTime="0.00" waitingCount="0" stopTime="0.00" timeLoss="16.76" rerouteNo="0" devices="tripinfo_NW_5" vType="cars" speedFactor="1.03" vaporized=""/>
    <tripinfo id="NS_6" depart="206.00" departLane="54o_0" departPos="5.10" departSpeed="0.00" departDelay="0.00" arrival="357.00" arrivalLane="53i_0" arrivalPos="10.00" arrivalSpeed="10.49" duration="151.00" routeLength="1015.18" waitingTime="44.00" waitingCount="1" stopTime="0.00" timeLoss="70.31" rerouteNo="0" devices="tripinfo_NS_6" vType="cars" speedFactor="0.92" vaporized=""/>
    <tripinfo id="NE_4" depart="223.00" departLane="54o_2" departPos="5.10" departSpeed="0.00" departDelay="0.00" arrival="358.00" arrivalLane="52i_0" arrivalPos="10.00" arrivalSpeed="8.64" duration="135.00" routeLength="1015.04" waitingTime="13.00" waitingCount="2" stopTime="0.00" timeLoss="40.16" rerouteNo="0" devices="tripinfo_NE_4" vType="cars" speedFactor="0.76" vaporized=""/>
    <tripinfo id="ES_3" depart="270.00" departLane="52o_2" departPos="5.10" departSpeed="0.00" departDelay="0.00" arrival="363.00" arrivalLane="53i_0" arrivalPos="10.00" arrivalSpeed="11.17" duration="93.00" routeLength="1015.04" waitingTime="0.00" waitingCount="0" stopTime="0.00" timeLoss="15.18" rerouteNo="0" devices="tripinfo_ES_3" vType="cars" speedFactor="0.98" vaporized=""/>
    <tripinfo id="WN_11" depart="269.00" departLane="51o_2" departPos="5.10" departSpeed="0.00" departDelay="0.00" arrival="368.00" arrivalLane="54i_0" arrivalPos="10.00" arrivalSpeed="9.98" duration="99.00" routeLength="1015.04" waitingTime="0.00" waitingCount="0" stopTime="0.00" timeLoss="14.81" rerouteNo="0" devices="tripinfo_WN_11" vType="cars" speedFactor="0.86" vaporized=""/>