<?xml version="1.0" encoding="UTF-8"?>

<!-- generated on 2026-05-11T21:17:08.329904+05:30 by Eclipse SUMO sumo 1.26.0
<sumoConfiguration xmlns:xsi="http://www.w3.org/2001/XMLSchema-instance" xsi:noNamespaceSchemaLocation="http://sumo.dlr.de/xsd/sumoConfiguration.xsd">

    <input>
        <net-file value="./cross.net.xml"/>
        <route-files value="./cross.rou.xml"/>
    </input>

    <output>
        <tripinfo-output value="random_tripinfo.xml"/>
    </output>

    <processing>
        <time-to-teleport value="-1"/>
        <waiting-time-memory value="1000"/>
        <max-depart-delay value="-1"/>
    </processing>

    <traci_server>
        <remote-port value="50424"/>
    </traci_server>

    <random_number>
        <random value="true"/>
    </random_number>

</sumoConfiguration>
-->

<tripinfos xmlns:xsi="http://www.w3.org/2001/XMLSchema-instance" xsi:noNamespaceSchemaLocation="http://sumo.dlr.de/xsd/tripinfo_file.xsd">
    <tripinfo id="WE_1" depart="16.00" departLane="51o_0" departPos="5.10" departSpeed="0.00" departDelay="0.00" arrival="101.00" arrivalLane="52i_0" arrivalPos="10.00" arrivalSpeed="12.90" duration="85.00" routeLength="1015.18" waitingTime="0.00" waitingCount="0" stopTime="0.00" timeLoss="14.46" rerouteNo="0" devices="tripinfo_WE_1" vType="cars" speedFactor="1.14" vaporized=""/>
    <tripinfo id="WE_0" depart="10.00" departLane="51o_0" departPos="5.10" departSpeed="0.00" departDelay="0.00" arrival="112.00" arrivalLane="52i_0" arrivalPos="10.00" arrivalSpeed="11.37" duration="102.00" routeLength="1015.18" waitingTime="0.00" waitingCount="0" stopTime="0.00" timeLoss="24.43" rerouteNo="0" devices="tripinfo_WE_0" vType="cars" speedFactor="0.97" vaporized=""/>
    <tripinfo id="WN_0" depart="8.00" departLane="51o_2" departPos="5.10" departSpeed="0.00" departDelay="0.00" arrival="119.00" arrivalLane="54i_0" arrivalPos="10.00" arrivalSpeed="12.22" duration="111.00" routeLength="1015.04" waitingTime="4.00" waitingCount="2" stopTime="0.00" timeLoss="36.51" rerouteNo="0" devices="tripinfo_WN_0" vType="cars" speedFactor="1.06" vaporized=""/>
    <tripinfo id="EW_0" depart="3.00" departLane="52o_0" departPos="5.10" departSpeed="0.00" departDelay="0.00" arrival="122.00" arrivalLane="51i_0" arrivalPos="10.00" arrivalSpeed="10.02" duration="119.00" routeLength="1015.18" waitingTime="6.00" waitingCount="1" stopTime="0.00" timeLoss="32.18" rerouteNo="0" devices="tripinfo_EW_0" vType="cars" speedFactor="0.83" vaporized=""/>
    <tripinfo id="SW_0" depart="29.00" departLane="53o_2" departPos="5.10" departSpeed="0.00" departDelay="0.00" arrival="123.00" arrivalLane="51i_1" arrivalPos="10.00" arrivalSpeed="10.88" duration="94.00" routeLength="1015.04" waitingTime="0.00" waitingCount="0" stopTime="0.00" timeLoss="16.27" rerouteNo="0" devices="tripinfo_SW_0" vType="cars" speedFactor="0.98" vaporized=""/>
    <tripinfo id="NE_0" depart="23.00" departLane="54o_2" departPos="5.10" departSpeed="0.00" departDelay="0.00" arrival="126.00" arrivalLane="52i_0" arrivalPos="10.00" arrivalSpeed="11.79" duration="103.00" routeLength="1015.04" waitingTime="0.00" waitingCount="0" stopTime="0.00" timeLoss="27.29" rerouteNo="0" devices="tripinfo_NE_0" vType="cars" speedFactor="1.02" vaporized=""/>
    <tripinfo id="SN_0" depart="0.00" departLane="53o_0" departPos="5.10" departSpeed="0.00" departDelay="0.00" arrival="131.00" arrivalLane="54i_0" arrivalPos="10.00" arrivalSpeed="11.27" duration="131.00" routeLength="1015.18" waitingTime="29.00" waitingCount="1" stopTime="0.00" timeLoss="57.34" rerouteNo="0" devices="tripinfo_SN_0" vType="cars" speedFactor="1.05" vaporized=""/>
    <tripinfo id="SE_0" depart="21.00" departLane="53o_0" departPos="5.10" departSpeed="0.00" departDelay="0.00" arrival="132.00" arrivalLane="52i_0" arrivalPos="10.00" arrivalSpeed="11.96" duration="111.00" routeLength="996.93" waitingTime="12.00" waitingCount="1" stopTime="0.00" timeLoss="37.61" rerouteNo="0" devices="tripinfo_SE_0" vType="cars" speedFactor="1.04" vaporized=""/>
    <tripinfo id="NS_0" depart="1.00" departLane="54o_0" departPos="5.10" departSpeed="0.00" departDelay="0.00" arrival="133.00" arrivalLane="53i_0" arrivalPos="10.00" arrivalSpeed="11.38" duration="132.00" routeLength="1015.18" waitingTime="28.00" waitingCount="1" stopTime="0.00" timeLoss="56.76" rerouteNo="0" devices="tripinfo_NS_0" vType="cars" speedFactor="1.02" vaporized=""/>
    <tripinfo id="WN_1" depart="24.00" departLane="51o_2" departPos="5.10" departSpeed="0.00" departDelay="0.00" arrival="137.00" arrivalLane="54i_0" arrivalPos="10.00" arrivalSpeed="13.35" duration="113.00" routeLength="1015.04" waitingTime="16.00" waitingCount="1" stopTime="0.00" timeLoss="43.88" rerouteNo="0" devices="tripinfo_WN_1" vType="cars" speedFactor="1.19" vaporized=""/>
    <tripinfo id="SE_1" depart="31.00" departLane="53o_0" departPos="5.10" departSpeed="0.00" departDelay="0.00" arrival="149.00" arrivalLane="52i_1" arrivalPos="10.00" arrivalSpeed="12.18" duration="118.00" routeLength="996.93" waitingTime="11.00" waitingCount="2" stopTime="0.00" timeLoss="45.51" rerouteNo="0" devices="tripinfo_SE_1" vType="cars" speedFactor="1.07" vaporized=""/>
    <tripinfo id="NE_1" depart="34.00" departLane="54o_2" departPos="5.10" departSpeed="0.00" departDelay="0.00" arrival="149.00" arrivalLane="52i_0" arrivalPos="10.00" arrivalSpeed="9.97" duration="115.00" routeLength="1015.04" waitingTime="3.00" waitingCount="1" stopTime="0.00" timeLoss="28.38" rerouteNo="0" devices="tripinfo_NE_1" vType="cars" speedFactor="0.84" vaporized=""/>
    <tripinfo id="SN_1" depart="42.00" departLane="53o_0" departPos="5.10" departSpeed="0.00" departDelay="0.00" arrival="154.00" arrivalLane="54i_0" arrivalPos="10.00" arrivalSpeed="11.45" duration="112.00" routeLength="1015.18" waitingTime="8.00" waitingCount="1" stopTime="0.00" timeLoss="35.09" rerouteNo="0" devices="tripinfo_SN_1" vType="cars" speedFactor="0.97" vaporized=""/>
    <tripinfo id="SN_2" depart="47.00" departLane="53o_0" departPos="5.10" departSpeed="0.00" departDelay="0.00" arrival="160.00" arrivalLane="54i_0" arrivalPos="10.00" arrivalSpeed="10.61" duration="113.00" routeLength="1015.18" waitingTime="5.00" waitingCount="1" stopTime="0.00" timeLoss="33.04" rerouteNo="0" devices="tripinfo_SN_2" vType="cars" speedFactor="0.91" vaporized=""/>
    <tripinfo id="ES_0" depart="55.00" departLane="52o_2" departPos="5.10" departSpeed="0.00" departDelay="0.00" arrival="165.00" arrivalLane="53i_0" arrivalPos="10.00" arrivalSpeed="13.44" duration="110.00" routeLength="1015.04" waitingTime="6.00" waitingCount="2" stopTime="0.00" timeLoss="40.28" rerouteNo="0" devices="tripinfo_ES_0" vType="cars" speedFactor="1.18" vaporized=""/>
    <tripinfo id="NE_2" depart="51.00" departLane="54o_2" departPos="5.10" departSpeed="0.00" departDelay="0.00" arrival="168.00" arrivalLane="52i_0" arrivalPos="10.00" arrivalSpeed="10.36" duration="117.00" routeLength="1015.04" waitingTime="8.00" waitingCount="1" stopTime="0.00" timeLoss="35.45" rerouteNo="0" devices="tripinfo_NE_2" vType="cars" speedFactor="0.90" vaporized=""/>
    <tripinfo id="NW_1" depart="77.00" departLane="54o_0" departPos="5.10" departSpeed="0.00" departDelay="0.00" arrival="175.00" arrivalLane="51i_0" arrivalPos="10.00" arrivalSpeed="12.55" duration="98.00" routeLength="996.93" waitingTime="0.00" waitingCount="0" stopTime="0.00" timeLoss="27.17" rerouteNo="0" devices="tripinfo_NW_1" vType="cars" speedFactor="1.11" vaporized=""/>
    <tripinfo id="NW_0" depart="71.00" departLane="54o_0" departPos="5.10" departSpeed="0.00" departDelay="0.00" arrival="179.00" arrivalLane="51i_0" arrivalPos="10.00" arrivalSpeed="11.09" duration="108.00" routeLength="996.93" waitingTime="4.00" waitingCount="1" stopTime="0.00" timeLoss="29.50" rerouteNo="0" devices="tripinfo_NW_0" vType="cars" speedFactor="0.95" vaporized=""/>
    <tripinfo id="SN_3" depart="73.00" departLane="53o_0" departPos="5.10" departSpeed="0.00" departDelay="0.00" arrival="187.00" arrivalLane="54i_0" arrivalPos="10.00" arrivalSpeed="9.56" duration="114.00" routeLength="1015.18" waitingTime="3.00" waitingCount="1" stopTime="0.00" timeLoss="27.72" rerouteNo="0" devices="tripinfo_SN_3" vType="cars" speedFactor="0.83" vaporized=""/>
    <tripinfo id="WN_3" depart="97.00" departLane="51o_2" departPos="5.10" departSpeed="0.00" departDelay="2.00" arrival="197.00" arrivalLane="54i_0" arrivalPos="10.00" arrivalSpeed="11.96" duration="100.00" routeLength="1015.04" waitingTime="0.00" waitingCount="0" stopTime="0.00" timeLoss="27.25" rerouteNo="0" devices="tripinfo_WN_3" vType="cars" speedFactor="1.09" vaporized=""/>
    <tripinfo id="WN_2" depart="92.00" departLane="51o_2" departPos="5.10" departSpeed="0.00" departDelay="0.00" arrival="203.00" arrivalLane="54i_0" arrivalPos="10.00" arrivalSpeed="10.28" duration="111.00" routeLength="1015.04" waitingTime="4.00" waitingCount="1" stopTime="0.00" timeLoss="29.02" rerouteNo="0" devices="tripinfo_WN_2" vType="cars" speedFactor="0.89" vaporized=""/>
    <tripinfo id="WE_3" depart="42.00" departLane="51o_1" departPos="5.10" departSpeed="0.00" departDelay="0.00" arrival="205.00" arrivalLane="52i_0" arrivalPos="10.00" arrivalSpeed="12.74" duration="163.00" routeLength="1015.18" waitingTime="63.00" waitingCount="1" stopTime="0.00" timeLoss="90.97" rerouteNo="0" devices="tripinfo_WE_3" vType="cars" speedFactor="1.09" vaporized=""/>
    <tripinfo id="EW_2" depart="53.00" departLane="52o_0" departPos="5.10" departSpeed="0.00" departDelay="0.00" arrival="205.00" arrivalLane="51i_0" arrivalPos="10.00" arrivalSpeed="12.44" duration="152.00" routeLength="1015.18" waitingTime="52.00" waitingCount="1" stopTime="0.00" timeLoss="79.41" rerouteNo="0" devices="tripinfo_EW_2" vType="cars" speedFactor="1.08" vaporized=""/>
    <tripinfo id="WE_2" depart="39.00" departLane="51o_0" departPos="5.10" departSpeed="0.00" departDelay="0.00" arrival="209.00" arrivalLane="52i_0" arrivalPos="10.00" arrivalSpeed="11.39" duration="170.00" routeLength="1015.18" waitingTime="67.00" waitingCount="1" stopTime="0.00" timeLoss="93.50" rerouteNo="0" devices="tripinfo_WE_2" vType="cars" speedFactor="1.00" vaporized=""/>
    <tripinfo id="EN_0" depart="48.00" departLane="52o_0" departPos="5.10" departSpeed="0.00" departDelay="0.00" arrival="209.00" arrivalLane="54i_0" arrivalPos="10.00" arrivalSpeed="11.62" duration="161.00" routeLength="996.93" waitingTime="59.00" waitingCount="1" stopTime="0.00" timeLoss="86.13" rerouteNo="0" devices="tripinfo_EN_0" vType="cars" speedFactor="1.01" vaporized=""/>
    <tripinfo id="EW_3" depart="70.00" departLane="52o_0" departPos="5.10" departSpeed="0.00" departDelay="0.00" arrival="209.00" arrivalLane="51i_1" arrivalPos="10.00" arrivalSpeed="11.75" duration="139.00" routeLength="1015.18" waitingTime="36.00" waitingCount="1" stopTime="0.00" timeLoss="64.25" rerouteNo="0" devices="tripinfo_EW_3" vType="cars" speedFactor="1.03" vaporized=""/>
    <tripinfo id="EW_1" depart="26.00" departLane="52o_0" departPos="5.10" departSpeed="0.00" departDelay="0.00" arrival="210.00" arrivalLane="51i_0" arrivalPos="10.00" arrivalSpeed="11.03" duration="184.00" routeLength="1015.18" waitingTime="79.00" waitingCount="1" stopTime="0.00" timeLoss="105.80" rerouteNo="0" devices="tripinfo_EW_1" vType="cars" speedFactor="0.96" vaporized=""/>
    <tripinfo id="WE_4" depart="84.00" departLane="51o_0" departPos="5.10" departSpeed="0.00" departDelay="0.00" arrival="214.00" arrivalLane="52i_0" arrivalPos="10.00" arrivalSpeed="10.67" duration="130.00" routeLength="1015.18" waitingTime="23.00" waitingCount="1" stopTime="0.00" timeLoss="49.94" rerouteNo="0" devices="tripinfo_WE_4" vType="cars" speedFactor="0.92" vaporized=""/>
    <tripinfo id="WN_4" depart="113.00" departLane="51o_2" departPos="5.10" departSpeed="0.00" departDelay="0.00" arrival="220.00" arrivalLane="54i_0" arrivalPos="10.00" arrivalSpeed="10.55" duration="107.00" routeLength="1015.04" waitingTime="3.00" waitingCount="1" stopTime="0.00" timeLoss="26.27" rerouteNo="0" devices="tripinfo_WN_4" vType="cars" speedFactor="0.93" vaporized=""/>
    <tripinfo id="EN_1" depart="83.00" departLane="52o_0" departPos="5.10" departSpeed="0.00" departDelay="0.00" arrival="230.00" arrivalLane="54i_0" arrivalPos="10.00" arrivalSpeed="12.04" duration="147.00" routeLength="996.93" waitingTime="41.00" waitingCount="2" stopTime="0.00" timeLoss="73.93" rerouteNo="0" devices="tripinfo_EN_1" vType="cars" speedFactor="1.07" vaporized=""/>
    <tripinfo id="WE_5" depart="140.00" departLane="51o_0" departPos="5.10" departSpeed="0.00" departDelay="0.00" arrival="230.00" arrivalLane="52i_0" arrivalPos="10.00" arrivalSpeed="11.90" duration="90.00" routeLength="1015.18" waitingTime="0.00" waitingCount="0" stopTime="0.00" timeLoss="15.19" rerouteNo="0" devices="tripinfo_WE_5" vType="cars" speedFactor="1.03" vaporized=""/>
    <tripinfo id="EN_2" depart="114.00" departLane="52o_0" departPos="5.10" departSpeed="0.00" departDelay="0.00" arrival="233.00" arrivalLane="54i_0" arrivalPos="10.00" arrivalSpeed="12.02" duration="119.00" routeLength="996.93" waitingTime="13.00" waitingCount="1" stopTime="0.00" timeLoss="45.37" rerouteNo="0" devices="tripinfo_EN_2" vType="cars" speedFactor="1.06" vaporized=""/>
    <tripinfo id="EW_4" depart="93.00" departLane="52o_0" departPos="5.10" departSpeed="0.00" departDelay="0.00" arrival="234.00" arrivalLane="51i_0" arrivalPos="10.00" arrivalSpeed="11.30" duration="141.00" routeLength="1015.18" waitingTime="29.00" waitingCount="2" stopTime="0.00" timeLoss="64.88" rerouteNo="0" devices="tripinfo_EW_4" vType="cars" speedFactor="1.00" vaporized=""/>
    <tripinfo id="EW_5" depart="122.00" departLane="52o_0" departPos="5.10" departSpeed="0.00" departDelay="0.00" arrival="242.00" arrivalLane="51i_0" arrivalPos="10.00" arrivalSpeed="10.36" duration="120.00" routeLength="1015.18" waitingTime="9.00" waitingCount="1" stopTime="0.00" timeLoss="36.59" rerouteNo="0" devices="tripinfo_EW_5" vType="cars" speedFactor="0.87" vaporized=""/>
    <tripinfo id="WN_6" depart="147.00" departLane="51o_2" departPos="5.10" departSpeed="0.00" departDelay="0.00" arrival="242.00" arrivalLane="54i_1" arrivalPos="10.00" arrivalSpeed="12.81" duration="95.00" routeLength="1015.04" waitingTime="0.00" waitingCount="0" stopTime="0.00" timeLoss="23.37" rerouteNo="0" devices="tripinfo_WN_6" vType="cars" speedFactor="1.13" vaporized=""/>
    <tripinfo id="WN_5" depart="118.00" departLane="51o_2" departPos="5.10" departSpeed="0.00" departDelay="2.00" arrival="243.00" arrivalLane="54i_0" arrivalPos="10.00" arrivalSpeed="11.80" duration="125.00" routeLength="1015.04" waitingTime="16.00" waitingCount="2" stopTime="0.00" timeLoss="49.57" rerouteNo="0" devices="tripinfo_WN_5" vType="cars" speedFactor="1.03" vaporized=""/>
    <tripinfo id="EW_6" depart="157.00" departLane="52o_0" departPos="5.10" departSpeed="0.00" departDelay="0.00" arrival="246.00" arrivalLane="51i_0" arrivalPos="10.00" arrivalSpeed="11.99" duration="89.00" routeLength="1015.18" waitingTime="0.00" waitingCount="0" stopTime="0.00" timeLoss="14.55" rerouteNo="0" devices="tripinfo_EW_6" vType="cars" speedFactor="1.04" vaporized=""/>
    <tripinfo id="EN_3" depart="149.00" departLane="52o_0" departPos="5.10" departSpeed="0.00" departDelay="0.00" arrival="248.00" arrivalLane="54i_0" arrivalPos="10.00" arrivalSpeed="12.82" duration="99.00" routeLength="996.93" waitingTime="1.00" waitingCount="1" stopTime="0.00" timeLoss="27.32" rerouteNo="0" devices="tripinfo_EN_3" vType="cars" speedFactor="1.10" vaporized=""/>
    <tripinfo id="WE_6" depart="161.00" departLane="51o_0" departPos="5.10" departSpeed="0.00" departDelay="0.00" arrival="249.00" arrivalLane="52i_0" arrivalPos="10.00" arrivalSpeed="12.38" duration="88.00" routeLength="1015.18" waitingTime="0.00" waitingCount="0" stopTime="0.00" timeLoss="14.07" rerouteNo="0" devices="tripinfo_WE_6" vType="cars" speedFactor="1.04" vaporized=""/>
    <tripinfo id="SN_5" depart="130.00" departLane="53o_0" departPos="5.10" departSpeed="0.00" departDelay="0.00" arrival="262.00" arrivalLane="54i_0" arrivalPos="10.00" arrivalSpeed="13.53" duration="132.00" routeLength="1015.18" waitingTime="34.00" waitingCount="1" stopTime="0.00" timeLoss="63.61" rerouteNo="0" devices="tripinfo_SN_5" vType="cars" speedFactor="1.21" vaporized=""/>
    <tripinfo id="SN_4" depart="117.00" departLane="53o_0" departPos="5.10" departSpeed="0.00" departDelay="0.00" arrival="264.00" arrivalLane="54i_0" arrivalPos="10.00" arrivalSpeed="13.12" duration="147.00" routeLength="1015.18" waitingTime="48.00" waitingCount="1" stopTime="0.00" timeLoss="76.53" rerouteNo="0" devices="tripinfo_SN_4" vType="cars" speedFactor="1.15" vaporized=""/>
    <tripinfo id="SN_6" depart="135.00" departLane="53o_0" departPos="5.10" departSpeed="0.00" departDelay="1.00" arrival="264.00" arrivalLane="54i_1" arrivalPos="10.00" arrivalSpeed="14.41" duration="129.00" routeLength="1015.18" waitingTime="32.00" waitingCount="1" stopTime="0.00" timeLoss="61.96" rerouteNo="0" devices="tripinfo_SN_6" vType="cars" speedFactor="1.26" vaporized=""/>
    <tripinfo id="NS_2" depart="92.00" departLane="54o_1" departPos="5.10" departSpeed="0.00" departDelay="0.00" arrival="266.00" arrivalLane="53i_0" arrivalPos="10.00" arrivalSpeed="11.79" duration="174.00" routeLength="1015.18" waitingTime="73.00" waitingCount="1" stopTime="0.00" timeLoss="99.67" rerouteNo="0" devices="tripinfo_NS_2" vType="cars" speedFactor="1.04" vaporized=""/>
    <tripinfo id="SN_8" depart="174.00" departLane="53o_0" departPos="5.10" departSpeed="0.00" departDelay="0.00" arrival="267.00" arrivalLane="54i_1" arrivalPos="10.00" arrivalSpeed="13.44" duration="93.00" routeLength="1015.18" waitingTime="0.00" waitingCount="0" stopTime="0.00" timeLoss="23.34" rerouteNo="0" devices="tripinfo_SN_8" vType="cars" speedFactor="1.17" vaporized=""/>
    <tripinfo id="NS_5" depart="159.00" departLane="54o_0" departPos="5.10" departSpeed="0.00" departDelay="0.00" arrival="268.00" arrivalLane="53i_1" arrivalPos="10.00" arrivalSpeed="12.84" duration="109.00" routeLength="1015.18" waitingTime="9.00" waitingCount="1" stopTime="0.00" timeLoss="38.30" rerouteNo="0" devices="tripinfo_NS_5" vType="cars" speedFactor="1.12" vaporized=""/>
    <tripinfo id="SN_7" depart="157.00" departLane="53o_0" departPos="5.10" departSpeed="0.00" departDelay="0.00" arrival="269.00" arrivalLane="54i_0" arrivalPos="10.00" arrivalSpeed="11.64" duration="112.00" routeLength="1015.18" waitingTime="9.00" waitingCount="1" stopTime="0.00" timeLoss="37.10" rerouteNo="0" devices="tripinfo_SN_7" vType="cars" speedFactor="1.02" vaporized=""/>
    <tripinfo id="NS_1" depart="91.00" departLane="54o_0" departPos="5.10" departSpeed="0.00" departDelay="0.00" arrival="270.00" arrivalLane="53i_0" arrivalPos="10.00" arrivalSpeed="11.61" duration="179.00" routeLength="1015.18" waitingTime="75.00" waitingCount="1" stopTime="0.00" timeLoss="101.97" rerouteNo="0" devices="tripinfo_NS_1" vType="cars" speedFactor="0.98" vaporized=""/>
    <tripinfo id="NW_2" depart="101.00" departLane="54o_0" departPos="5.10" departSpeed="0.00" departDelay="7.00" arrival="271.00" arrivalLane="51i_0" arrivalPos="10.00" arrivalSpeed="11.68" duration="170.00" routeLength="996.93" waitingTime="67.00" waitingCount="1" stopTime="0.00" timeLoss="94.45" rerouteNo="0" devices="tripinfo_NW_2" vType="cars" speedFactor="1.01" vaporized=""/>
    <tripinfo id="NS_4" depart="152.00" departLane="54o_0" departPos="5.10" departSpeed="0.00" departDelay="0.00" arrival="271.00" arrivalLane="53i_1" arrivalPos="10.00" arrivalSpeed="10.80" duration="119.00" routeLength="1015.18" waitingTime="14.00" waitingCount="1" stopTime="0.00" timeLoss="41.36" rerouteNo="0" devices="tripinfo_NS_4" vType="cars" speedFactor="0.96" vaporized=""/>
    <tripinfo id="NS_3" depart="96.00" departLane="54o_0" departPos="5.10" departSpeed="0.00" departDelay="2.00" arrival="272.00" arrivalLane="53i_0" arrivalPos="10.00" arrivalSpeed="10.68" duration="176.00" routeLength="1015.18" waitingTime="70.00" waitingCount="1" stopTime="0.00" timeLoss="98.46" rerouteNo="0" devices="tripinfo_NS_3" vType="cars" speedFactor="0.96" vaporized=""/>
    <tripinfo id="NW_3" depart="166.00" departLane="54o_0" departPos="5.10" departSpeed="0.00" departDelay="0.00" arrival="276.00" arrivalLane="51i_0" arrivalPos="10.00" arrivalSpeed="10.88" duration="110.00" routeLength="996.93" waitingTime="4.00" waitingCount="1" stopTime="0.00" timeLoss="31.31" rerouteNo="0" devices="tripinfo_NW_3" vType="cars" speedFactor="0.95" vaporized=""/>
    <tripinfo id="NE_3" depart="172.00" departLane="54o_2" departPos="5.10" departSpeed="0.00" departDelay="0.00" arrival="280.00" arrivalLane="52i_0" arrivalPos="10.00" arrivalSpeed="11.39" duration="108.00" routeLength="1015.04" waitingTime="6.00" waitingCount="1" stopTime="0.00" timeLoss="31.11" rerouteNo="0" devices="tripinfo_NE_3" vType="cars" speedFactor="0.99" vaporized=""/>
    <tripinfo id="SW_1" depart="160.00" departLane="53o_2" departPos="5.10" departSpeed="0.00" departDelay="0.00" arrival="284.00" arrivalLane="51i_0" arrivalPos="10.00" arrivalSpeed="10.72" duration="124.00" routeLength="1015.04" waitingTime="14.00" waitingCount="2" stopTime="0.00" timeLoss="42.86" rerouteNo="0" devices="tripinfo_SW_1" vType="cars" speedFactor="0.91" vaporized=""/>
    <tripinfo id="NW_4" depart="171.00" departLane="54o_0" departPos="5.10" departSpeed="0.00" departDelay="0.00" arrival="292.00" arrivalLane="51i_0" arrivalPos="10.00" arrivalSpeed="11.12" duration="121.00" routeLength="996.93" waitingTime="9.00" waitingCount="1" stopTime="0.00" timeLoss="44.27" rerouteNo="0" devices="tripinfo_NW_4" vType="cars" speedFactor="0.97" vaporized=""/>
    <tripinfo id="SE_2" depart="209.00" departLane="53o_0" departPos="5.10" departSpeed="0.00" departDelay="0.00" arrival="310.00" arrivalLane="52i_0" arrivalPos="10.00" arrivalSpeed="12.17" duration="101.00" routeLength="996.93" waitingTime="2.00" waitingCount="1" stopTime="0.00" timeLoss="27.33" rerouteNo="0" devices="tripinfo_SE_2" vType="cars" speedFactor="1.05" vaporized=""/>
    <tripinfo id="NS_6" depart="206.00" departLane="54o_0" departPos="5.10" departSpeed="0.00" departDelay="0.00" arrival="314.00" arrivalLane="53i_0" arrivalPos="10.00" arrivalSpeed="11.32" duration="108.00" routeLength="1015.18" waitingTime="4.00" waitingCount="1" stopTime="0.00" timeLoss="31.74" rerouteNo="0" devices="tripinfo_NS_6" vType="cars" speedFactor="1.00" vaporized=""/>
    <tripinfo id="NE_4" depart="223.00" departLane="54o_2" departPos="5.10" departSpeed="0.00" departDelay="0.00" arrival="319.00" arrivalLane="52i_0" arrivalPos="10.00" arrivalSpeed="10.54" duration="96.00" routeLength="1015.04" waitingTime="0.00" waitingCount="0" stopTime="0.00" timeLoss="15.40" rerouteNo="0" devices="tripinfo_NE_4" vType="cars" speedFactor="0.92" vaporized=""/>
    <tripinfo id="EW_7" depart="172.00" departLane="52o_0" departPos="5.10" departSpeed="0.00" departDelay="0.00" arrival="331.00" arrivalLane="51i_0" arrivalPos="10.00" arrivalSpeed="11.94" duration="159.00" routeLength="1015.18" waitingTime="59.00" waitingCount="1" stopTime="0.00" timeLoss="84.63" rerouteNo="0" devices="tripinfo_EW_7" vType="cars" speedFactor="1.03" vaporized=""/>
    <tripinfo id="EW_8" depart="177.00" departLane="52o_0" departPos="5.10" departSpeed="0.00" departDelay="1.00" arrival="332.00" arrivalLane="51i_1" arrivalPos="10.00" arrivalSpeed="11.73" duration="155.00" routeLength="1015.18" waitingTime="54.00" waitingCount="1" stopTime="0.00" timeLoss="80.68" rerouteNo="0" devices="tripinfo_EW_8" vType="cars" speedFactor="1.04" vaporized=""/>
    <tripinfo id="WE_7" depart="171.00" departLane="51o_0" departPos="5.10" departSpeed="0.00" departDelay="0.00" arrival="333.00" arrivalLane="52i_0" arrivalPos="10.00" arrivalSpeed="11.61" duration="162.00" routeLength="1015.18" waitingTime="60.00" waitingCount="1" stopTime="0.00" timeLoss="86.52" rerouteNo="0" devices="tripinfo_WE_7" vType="cars" speedFactor="1.02" vaporized=""/>
    <tripinfo id="WE_8" depart="197.00" departLane="51o_0" departPos="5.10" departSpeed="0.00" departDelay="0.00" arrival="335.00" arrivalLane="52i_1" arrivalPos="10.00" arrivalSpeed="10.72" duration="138.00" routeLength="1015.18" waitingTime="34.00" waitingCount="1" stopTime="0.00" timeLoss="59.84" rerouteNo="0" devices="tripinfo_WE_8" vType="cars" speedFactor="0.95" vaporized=""/>
    <tripinfo id="WE_9" depart="206.00" departLane="51o_0" departPos="5.10" departSpeed="0.00" departDelay="0.00" arrival="336.00" arrivalLane="52i_0" arrivalPos="10.00" arrivalSpeed="11.39" duration="130.00" routeLength="1015.18" waitingTime="26.00" waitingCount="1" stopTime="0.00" timeLoss="53.18" rerouteNo="0" devices="tripinfo_WE_9" vType="cars" speedFactor="0.99" vaporized=""/>
    <tripinfo id="WE_10" depart="214.00" departLane="51o_0" departPos="5.10" departSpeed="0.00" departDelay="0.00" arrival="336.00" arrivalLane="52i_2" arrivalPos="10.00" arrivalSpeed="11.75" duration="122.00" routeLength="1015.18" waitingTime="17.00" waitingCount="1" stopTime="0.00" timeLoss="45.56" rerouteNo="0" devices="tripinfo_WE_10" vType="cars" speedFactor="1.00" vaporized=""/>
    <tripinfo id="EW_9" depart="180.00" departLane="52o_1" departPos="5.10" departSpeed="0.00" departDelay="0.00" arrival="338.00" arrivalLane="51i_0" arrivalPos="10.00" arrivalSpeed="10.88" duration="158.00" routeLength="1015.18" waitingTime="52.00" waitingCount="1" stopTime="0.00" timeLoss="79.01" rerouteNo="0" devices="tripinfo_EW_9" vType="cars" speedFactor="0.94" vaporized=""/>
    <tripinfo id="ES_1" depart="172.00" departLane="52o_2" departPos="5.10" departSpeed="0.00" departDelay="0.00" arrival="340.00" arrivalLane="53i_0" arrivalPos="10.00" arrivalSpeed="12.86" duration="168.00" routeLength="1015.04" waitingTime="64.00" waitingCount="2" stopTime="0.00" timeLoss="96.19" rerouteNo="0" devices="tripinfo_ES_1" vType="cars" speedFactor="1.13" vaporized=""/>
    <tripinfo id="EW_10" depart="189.00" departLane="52o_0" departPos="5.10" departSpeed="0.00" departDelay="0.00" arrival="340.00" arrivalLane="51i_0" arrivalPos="10.00" arrivalSpeed="10.23" duration="151.00" routeLength="1015.18" waitingTime="41.00" waitingCount="1" stopTime="0.00" timeLoss="70.14" rerouteNo="0" devices="tripinfo_EW_10" vType="cars" speedFactor="0.90" vaporized=""/>
    <tripinfo id="WN_7" depart="197.00" departLane="51o_2" departPos="5.10" departSpeed="0.00" departDelay="0.00" arrival="342.00" arrivalLane="54i_0" arrivalPos="10.00" arrivalSpeed="11.95" duration="145.00" routeLength="1015.04" waitingTime="37.00" waitingCount="2" stopTime="0.00" timeLoss="69.57" rerouteNo="0" devices="tripinfo_WN_7" vType="cars" speedFactor="1.03" vaporized=""/>
    <tripinfo id="WN_8" depart="208.00" departLane="51o_2" departPos="5.10" departSpeed="0.00" departDelay="0.00" arrival="350.00" arrivalLane="54i_0" arrivalPos="10.00" arrivalSpeed="10.24" duration="142.00" routeLength="1015.04" waitingTime="28.00" waitingCount="2" stopTime="0.00" timeLoss="59.39" rerouteNo="0" devices="tripinfo_WN_8" vType="cars" speedFactor="0.89" vaporized=""/>
    <tripinfo id="ES_3" depart="270.00" departLane="52o_2" departPos="5.10" departSpeed="0.00" departDelay="0.00" arrival="351.00" arrivalLane="53i_1" arrivalPos="10.00" arrivalSpeed="14.38" duration="81.00" routeLength="1015.04" waitingTime="0.00" waitingCount="0" stopTime="0.00" timeLoss="15.15" rerouteNo="0" devices="tripinfo_ES_3" vType="cars" speedFactor="1.30" vaporized=""/>
    <tripinfo id="ES_2" depart="229.00" departLane="52o_2" departPos="5.10" departSpeed="0.00" departDelay="0.00" arrival="355.00" arrivalLane="53i_0" arrivalPos="10.00" arrivalSpeed="9.65" duration="126.00" routeLength="1015.04" waitingTime="7.00" waitingCount="2" stopTime="0.00" timeLoss="38.07" rerouteNo="0" devices="tripinfo_ES_2" vType="cars" speedFactor="0.82" vaporized=""/>
    <tripinfo id="ES_4" depart="276.00" departLane="52o_2" departPos="5.10" departSpeed="0.00" departDelay="0.00" arrival="367.00" arrivalLane="53i_0" arrivalPos="10.00" arrivalSpeed="11.64" duration="91.00" routeLength="1015.04" waitingTime="0.00" waitingCount="0" stopTime="0.00" timeLoss="15.03" rerouteNo="0" devices="tripinfo_ES_4" vType="cars" speedFactor="1.01" vaporized=""/>
    <tripinfo id="WN_9" depart="222.00" departLane="51o_2" departPos="5.10" departSpeed="0.00" departDelay="0.00" arrival="371.00" arrivalLane="54i_0" arrivalPos="10.00" arrivalSpeed="10.98" duration="149.00" routeLength="1015.04" waitingTime="30.00" waitingCount="3" stopTime="0.00" timeLoss="69.51" rerouteNo="0" devices="tripinfo_WN_9" vType="cars" speedFactor="0.95" vaporized=""/>
    <tripinfo id="WN_10" depart="227.00" departLane="51o_2" departPos="5.10" departSpeed="0.00" departDelay="4.00" arrival="372.00" arrivalLane="54i_0" arrivalPos="10.00" arrivalSpeed="10.49" duration="145.00" routeLength="1015.04" waitingTime="26.00" waitingCount="3" stopTime="0.00" timeLoss="66.32" rerouteNo="0" devices="tripinfo_WN_10" vType="cars" speedFactor="0.95" vaporized=""/>
    <tripinfo id="EW_12" depart="236.00" departLane="52o_0" departPos="5.10" departSpeed="0.00" departDelay="0.00" arrival="376.00" arrivalLane="51i_1" arrivalPos="10.00" arrivalSpeed="12.55" duration="140.00" routeLength="1015.18" waitingTime="34.00" waitingCount="1" stopTime="0.00" timeLoss="66.70" rerouteNo="0" devices="tripinfo_EW_12" vType="cars" speedFactor="1.07" vaporized=""/>
    <tripinfo id="EW_11" depart="199.00" departLane="52o_0" departPos="5.10" departSpeed="0.00" departDelay="0.00" arrival="377.00" arrivalLane="51i_0" arrivalPos="10.00" arrivalSpeed="12.31" duration="178.00" routeLength="1015.18" waitingTime="68.00" waitingCount="2" stopTime="0.00" timeLoss="103.98" rerouteNo="0" devices="tripinfo_EW_11" vType="cars" speedFactor="1.05" vaporized=""/>