<?xml version="1.0" encoding="UTF-8"?>

<!-- generated on 2026-04-10T04:35:28.740393+05:30 by Eclipse SUMO sumo 1.25.0
<sumoConfiguration xmlns:xsi="http://www.w3.org/2001/XMLSchema-instance" xsi:noNamespaceSchemaLocation="http://sumo.dlr.de/xsd/sumoConfiguration.xsd">

    <input>
        <net-file value="./cross.net.xml"/>
        <route-files value="./cross.rou.xml"/>
    </input>

    <output>
        <tripinfo-output value="tripinfo_eval.xml"/>
    </output>

    <processing>
        <time-to-teleport value="-1"/>
        <waiting-time-memory value="1000"/>
        <max-depart-delay value="-1"/>
    </processing>

    <traci_server>
        <remote-port value="39535"/>
    </traci_server>

    <random_number>
        <random value="true"/>
    </random_number>

</sumoConfiguration>
-->

<tripinfos xmlns:xsi="http://www.w3.org/2001/XMLSchema-instance" xsi:noNamespaceSchemaLocation="http://sumo.dlr.de/xsd/tripinfo_file.xsd">
    <tripinfo id="SN_0" depart="0.00" departLane="53o_0" departPos="5.10" departSpeed="0.00" departDelay="0.00" arrival="88.00" arrivalLane="54i_0" arrivalPos="10.00" arrivalSpeed="12.31" duration="88.00" routeLength="1015.18" waitingTime="0.00" waitingCount="0" stopTime="0.00" timeLoss="15.03" rerouteNo="0" devices="tripinfo_SN_0" vType="cars" speedFactor="1.06" vaporized=""/>
    <tripinfo id="NS_0" depart="1.00" departLane="54o_0" departPos="5.10" departSpeed="0.00" departDelay="0.00" arrival="96.00" arrivalLane="53i_0" arrivalPos="10.00" arrivalSpeed="10.66" duration="95.00" routeLength="1015.18" waitingTime="0.00" waitingCount="0" stopTime="0.00" timeLoss="15.42" rerouteNo="0" devices="tripinfo_NS_0" vType="cars" speedFactor="0.93" vaporized=""/>
    <tripinfo id="WE_0" depart="10.00" departLane="51o_0" departPos="5.10" departSpeed="0.00" departDelay="0.00" arrival="100.00" arrivalLane="52i_0" arrivalPos="10.00" arrivalSpeed="12.09" duration="90.00" routeLength="1015.18" waitingTime="0.00" waitingCount="0" stopTime="0.00" timeLoss="15.52" rerouteNo="0" devices="tripinfo_WE_0" vType="cars" speedFactor="1.04" vaporized=""/>
    <tripinfo id="EW_0" depart="3.00" departLane="52o_0" departPos="5.10" departSpeed="0.00" departDelay="0.00" arrival="104.00" arrivalLane="51i_0" arrivalPos="10.00" arrivalSpeed="12.93" duration="101.00" routeLength="1015.18" waitingTime="2.00" waitingCount="1" stopTime="0.00" timeLoss="31.01" rerouteNo="0" devices="tripinfo_EW_0" vType="cars" speedFactor="1.15" vaporized=""/>
    <tripinfo id="WE_1" depart="16.00" departLane="51o_0" departPos="5.10" departSpeed="0.00" departDelay="0.00" arrival="107.00" arrivalLane="52i_0" arrivalPos="10.00" arrivalSpeed="11.64" duration="91.00" routeLength="1015.18" waitingTime="0.00" waitingCount="0" stopTime="0.00" timeLoss="15.51" rerouteNo="0" devices="tripinfo_WE_1" vType="cars" speedFactor="1.01" vaporized=""/>
    <tripinfo id="SE_0" depart="21.00" departLane="53o_0" departPos="5.10" departSpeed="0.00" departDelay="0.00" arrival="114.00" arrivalLane="52i_0" arrivalPos="10.00" arrivalSpeed="11.57" duration="93.00" routeLength="996.93" waitingTime="0.00" waitingCount="0" stopTime="0.00" timeLoss="17.88" rerouteNo="0" devices="tripinfo_SE_0" vType="cars" speedFactor="1.01" vaporized=""/>
    <tripinfo id="NE_0" depart="23.00" departLane="54o_2" departPos="5.10" departSpeed="0.00" departDelay="0.00" arrival="116.00" arrivalLane="52i_0" arrivalPos="10.00" arrivalSpeed="11.94" duration="93.00" routeLength="1015.04" waitingTime="0.00" waitingCount="0" stopTime="0.00" timeLoss="17.43" rerouteNo="0" devices="tripinfo_NE_0" vType="cars" speedFactor="1.02" vaporized=""/>
    <tripinfo id="WN_0" depart="8.00" departLane="51o_2" departPos="5.10" departSpeed="0.00" departDelay="0.00" arrival="124.00" arrivalLane="54i_0" arrivalPos="10.00" arrivalSpeed="9.45" duration="116.00" routeLength="1015.04" waitingTime="2.00" waitingCount="1" stopTime="0.00" timeLoss="28.20" rerouteNo="0" devices="tripinfo_WN_0" vType="cars" speedFactor="0.82" vaporized=""/>
    <tripinfo id="WN_1" depart="24.00" departLane="51o_2" departPos="5.10" departSpeed="0.00" departDelay="0.00" arrival="126.00" arrivalLane="54i_1" arrivalPos="10.00" arrivalSpeed="11.91" duration="102.00" routeLength="1015.04" waitingTime="1.00" waitingCount="1" stopTime="0.00" timeLoss="27.83" rerouteNo="0" devices="tripinfo_WN_1" vType="cars" speedFactor="1.06" vaporized=""/>
    <tripinfo id="EW_1" depart="26.00" departLane="52o_0" departPos="5.10" departSpeed="0.00" departDelay="0.00" arrival="131.00" arrivalLane="51i_0" arrivalPos="10.00" arrivalSpeed="9.92" duration="105.00" routeLength="1015.18" waitingTime="0.00" waitingCount="0" stopTime="0.00" timeLoss="20.29" rerouteNo="0" devices="tripinfo_EW_1" vType="cars" speedFactor="0.84" vaporized=""/>
    <tripinfo id="SE_1" depart="31.00" departLane="53o_0" departPos="5.10" departSpeed="0.00" departDelay="0.00" arrival="134.00" arrivalLane="52i_0" arrivalPos="10.00" arrivalSpeed="12.13" duration="103.00" routeLength="996.93" waitingTime="3.00" waitingCount="1" stopTime="0.00" timeLoss="30.94" rerouteNo="0" devices="tripinfo_SE_1" vType="cars" speedFactor="1.08" vaporized=""/>
    <tripinfo id="SW_0" depart="29.00" departLane="53o_2" departPos="5.10" departSpeed="0.00" departDelay="0.00" arrival="136.00" arrivalLane="51i_0" arrivalPos="10.00" arrivalSpeed="11.55" duration="107.00" routeLength="1015.04" waitingTime="6.00" waitingCount="1" stopTime="0.00" timeLoss="32.92" rerouteNo="0" devices="tripinfo_SW_0" vType="cars" speedFactor="1.05" vaporized=""/>
    <tripinfo id="SN_2" depart="47.00" departLane="53o_0" departPos="5.10" departSpeed="0.00" departDelay="0.00" arrival="137.00" arrivalLane="54i_0" arrivalPos="10.00" arrivalSpeed="11.88" duration="90.00" routeLength="1015.18" waitingTime="0.00" waitingCount="0" stopTime="0.00" timeLoss="15.03" rerouteNo="0" devices="tripinfo_SN_2" vType="cars" speedFactor="1.02" vaporized=""/>
    <tripinfo id="EN_0" depart="48.00" departLane="52o_0" departPos="5.10" departSpeed="0.00" departDelay="0.00" arrival="142.00" arrivalLane="54i_0" arrivalPos="10.00" arrivalSpeed="11.59" duration="94.00" routeLength="996.93" waitingTime="0.00" waitingCount="0" stopTime="0.00" timeLoss="18.51" rerouteNo="0" devices="tripinfo_EN_0" vType="cars" speedFactor="1.00" vaporized=""/>
    <tripinfo id="WE_2" depart="39.00" departLane="51o_0" departPos="5.10" departSpeed="0.00" departDelay="0.00" arrival="148.00" arrivalLane="52i_0" arrivalPos="10.00" arrivalSpeed="11.23" duration="109.00" routeLength="1015.18" waitingTime="6.00" waitingCount="1" stopTime="0.00" timeLoss="33.26" rerouteNo="0" devices="tripinfo_WE_2" vType="cars" speedFactor="1.00" vaporized=""/>
    <tripinfo id="SN_1" depart="42.00" departLane="53o_0" departPos="5.10" departSpeed="0.00" departDelay="0.00" arrival="150.00" arrivalLane="54i_0" arrivalPos="10.00" arrivalSpeed="9.01" duration="108.00" routeLength="1015.18" waitingTime="0.00" waitingCount="0" stopTime="0.00" timeLoss="15.10" rerouteNo="0" devices="tripinfo_SN_1" vType="cars" speedFactor="0.77" vaporized=""/>
    <tripinfo id="NE_1" depart="34.00" departLane="54o_2" departPos="5.10" departSpeed="0.00" departDelay="0.00" arrival="151.00" arrivalLane="52i_0" arrivalPos="10.00" arrivalSpeed="10.88" duration="117.00" routeLength="1015.04" waitingTime="6.00" waitingCount="2" stopTime="0.00" timeLoss="37.63" rerouteNo="0" devices="tripinfo_NE_1" vType="cars" speedFactor="0.94" vaporized=""/>
    <tripinfo id="ES_0" depart="55.00" departLane="52o_2" departPos="5.10" departSpeed="0.00" departDelay="0.00" arrival="151.00" arrivalLane="53i_0" arrivalPos="10.00" arrivalSpeed="12.37" duration="96.00" routeLength="1015.04" waitingTime="0.00" waitingCount="0" stopTime="0.00" timeLoss="23.35" rerouteNo="0" devices="tripinfo_ES_0" vType="cars" speedFactor="1.10" vaporized=""/>
    <tripinfo id="EW_2" depart="53.00" departLane="52o_0" departPos="5.10" departSpeed="0.00" departDelay="0.00" arrival="152.00" arrivalLane="51i_0" arrivalPos="10.00" arrivalSpeed="10.10" duration="99.00" routeLength="1015.18" waitingTime="0.00" waitingCount="0" stopTime="0.00" timeLoss="16.05" rerouteNo="0" devices="tripinfo_EW_2" vType="cars" speedFactor="0.87" vaporized=""/>
    <tripinfo id="WE_3" depart="42.00" departLane="51o_1" departPos="5.10" departSpeed="0.00" departDelay="0.00" arrival="154.00" arrivalLane="52i_0" arrivalPos="10.00" arrivalSpeed="10.66" duration="112.00" routeLength="1015.18" waitingTime="2.00" waitingCount="1" stopTime="0.00" timeLoss="32.32" rerouteNo="0" devices="tripinfo_WE_3" vType="cars" speedFactor="0.92" vaporized=""/>
    <tripinfo id="NE_2" depart="51.00" departLane="54o_2" departPos="5.10" departSpeed="0.00" departDelay="0.00" arrival="158.00" arrivalLane="52i_0" arrivalPos="10.00" arrivalSpeed="11.42" duration="107.00" routeLength="1015.04" waitingTime="3.00" waitingCount="1" stopTime="0.00" timeLoss="30.24" rerouteNo="0" devices="tripinfo_NE_2" vType="cars" speedFactor="0.99" vaporized=""/>
    <tripinfo id="NW_0" depart="71.00" departLane="54o_0" departPos="5.10" departSpeed="0.00" departDelay="0.00" arrival="159.00" arrivalLane="51i_0" arrivalPos="10.00" arrivalSpeed="12.70" duration="88.00" routeLength="996.93" waitingTime="0.00" waitingCount="0" stopTime="0.00" timeLoss="17.49" rerouteNo="0" devices="tripinfo_NW_0" vType="cars" speedFactor="1.12" vaporized=""/>
    <tripinfo id="SN_3" depart="73.00" departLane="53o_0" departPos="5.10" departSpeed="0.00" departDelay="0.00" arrival="166.00" arrivalLane="54i_0" arrivalPos="10.00" arrivalSpeed="11.35" duration="93.00" routeLength="1015.18" waitingTime="0.00" waitingCount="0" stopTime="0.00" timeLoss="16.16" rerouteNo="0" devices="tripinfo_SN_3" vType="cars" speedFactor="0.99" vaporized=""/>
    <tripinfo id="WE_4" depart="84.00" departLane="51o_0" departPos="5.10" departSpeed="0.00" departDelay="0.00" arrival="171.00" arrivalLane="52i_0" arrivalPos="10.00" arrivalSpeed="12.69" duration="87.00" routeLength="1015.18" waitingTime="0.00" waitingCount="0" stopTime="0.00" timeLoss="15.05" rerouteNo="0" devices="tripinfo_WE_4" vType="cars" speedFactor="1.11" vaporized=""/>
    <tripinfo id="EW_3" depart="70.00" departLane="52o_0" departPos="5.10" departSpeed="0.00" departDelay="0.00" arrival="177.00" arrivalLane="51i_0" arrivalPos="10.00" arrivalSpeed="11.93" duration="107.00" routeLength="1015.18" waitingTime="7.00" waitingCount="1" stopTime="0.00" timeLoss="33.00" rerouteNo="0" devices="tripinfo_EW_3" vType="cars" speedFactor="1.06" vaporized=""/>
    <tripinfo id="EN_1" depart="83.00" departLane="52o_0" departPos="5.10" departSpeed="0.00" departDelay="0.00" arrival="180.00" arrivalLane="54i_0" arrivalPos="10.00" arrivalSpeed="11.02" duration="97.00" routeLength="996.93" waitingTime="0.00" waitingCount="0" stopTime="0.00" timeLoss="19.05" rerouteNo="0" devices="tripinfo_EN_1" vType="cars" speedFactor="0.94" vaporized=""/>
    <tripinfo id="NW_1" depart="77.00" departLane="54o_0" departPos="5.10" departSpeed="0.00" departDelay="0.00" arrival="181.00" arrivalLane="51i_0" arrivalPos="10.00" arrivalSpeed="13.83" duration="104.00" routeLength="996.93" waitingTime="7.00" waitingCount="1" stopTime="0.00" timeLoss="36.08" rerouteNo="0" devices="tripinfo_NW_1" vType="cars" speedFactor="1.20" vaporized=""/>
    <tripinfo id="NS_2" depart="92.00" departLane="54o_1" departPos="5.10" departSpeed="0.00" departDelay="0.00" arrival="182.00" arrivalLane="53i_0" arrivalPos="10.00" arrivalSpeed="12.07" duration="90.00" routeLength="1015.18" waitingTime="0.00" waitingCount="0" stopTime="0.00" timeLoss="15.56" rerouteNo="0" devices="tripinfo_NS_2" vType="cars" speedFactor="1.04" vaporized=""/>
    <tripinfo id="NS_3" depart="96.00" departLane="54o_0" departPos="5.10" departSpeed="0.00" departDelay="2.00" arrival="184.00" arrivalLane="53i_0" arrivalPos="10.00" arrivalSpeed="12.39" duration="88.00" routeLength="1015.18" waitingTime="0.00" waitingCount="0" stopTime="0.00" timeLoss="14.36" rerouteNo="0" devices="tripinfo_NS_3" vType="cars" speedFactor="1.07" vaporized=""/>
    <tripinfo id="NS_1" depart="91.00" departLane="54o_0" departPos="5.10" departSpeed="0.00" departDelay="0.00" arrival="187.00" arrivalLane="53i_0" arrivalPos="10.00" arrivalSpeed="11.06" duration="96.00" routeLength="1015.18" waitingTime="0.00" waitingCount="0" stopTime="0.00" timeLoss="18.97" rerouteNo="0" devices="tripinfo_NS_1" vType="cars" speedFactor="0.98" vaporized=""/>
    <tripinfo id="EW_4" depart="93.00" departLane="52o_0" departPos="5.10" departSpeed="0.00" departDelay="0.00" arrival="198.00" arrivalLane="51i_0" arrivalPos="10.00" arrivalSpeed="11.67" duration="105.00" routeLength="1015.18" waitingTime="2.00" waitingCount="1" stopTime="0.00" timeLoss="30.02" rerouteNo="0" devices="tripinfo_EW_4" vType="cars" speedFactor="1.03" vaporized=""/>
    <tripinfo id="WN_2" depart="92.00" departLane="51o_2" departPos="5.10" departSpeed="0.00" departDelay="0.00" arrival="203.00" arrivalLane="54i_0" arrivalPos="10.00" arrivalSpeed="12.15" duration="111.00" routeLength="1015.04" waitingTime="2.00" waitingCount="1" stopTime="0.00" timeLoss="37.36" rerouteNo="0" devices="tripinfo_WN_2" vType="cars" speedFactor="1.06" vaporized=""/>
    <tripinfo id="NW_2" depart="101.00" departLane="54o_0" departPos="5.10" departSpeed="0.00" departDelay="7.00" arrival="203.00" arrivalLane="51i_0" arrivalPos="10.00" arrivalSpeed="12.57" duration="102.00" routeLength="996.93" waitingTime="4.00" waitingCount="1" stopTime="0.00" timeLoss="31.89" rerouteNo="0" devices="tripinfo_NW_2" vType="cars" speedFactor="1.13" vaporized=""/>
    <tripinfo id="SN_4" depart="117.00" departLane="53o_0" departPos="5.10" departSpeed="0.00" departDelay="0.00" arrival="207.00" arrivalLane="54i_0" arrivalPos="10.00" arrivalSpeed="11.55" duration="90.00" routeLength="1015.18" waitingTime="0.00" waitingCount="0" stopTime="0.00" timeLoss="15.26" rerouteNo="0" devices="tripinfo_SN_4" vType="cars" speedFactor="1.03" vaporized=""/>
    <tripinfo id="WN_3" depart="97.00" departLane="51o_2" departPos="5.10" departSpeed="0.00" departDelay="2.00" arrival="208.00" arrivalLane="54i_0" arrivalPos="10.00" arrivalSpeed="11.32" duration="111.00" routeLength="1015.04" waitingTime="1.00" waitingCount="1" stopTime="0.00" timeLoss="33.45" rerouteNo="0" devices="tripinfo_WN_3" vType="cars" speedFactor="0.97" vaporized=""/>
    <tripinfo id="EN_2" depart="114.00" departLane="52o_0" departPos="5.10" departSpeed="0.00" departDelay="0.00" arrival="214.00" arrivalLane="54i_0" arrivalPos="10.00" arrivalSpeed="12.12" duration="100.00" routeLength="996.93" waitingTime="0.00" waitingCount="0" stopTime="0.00" timeLoss="27.45" rerouteNo="0" devices="tripinfo_EN_2" vType="cars" speedFactor="1.06" vaporized=""/>
    <tripinfo id="EW_5" depart="122.00" departLane="52o_0" departPos="5.10" departSpeed="0.00" departDelay="0.00" arrival="218.00" arrivalLane="51i_0" arrivalPos="10.00" arrivalSpeed="10.42" duration="96.00" routeLength="1015.18" waitingTime="0.00" waitingCount="0" stopTime="0.00" timeLoss="15.49" rerouteNo="0" devices="tripinfo_EW_5" vType="cars" speedFactor="0.92" vaporized=""/>
    <tripinfo id="WN_4" depart="113.00" departLane="51o_2" departPos="5.10" departSpeed="0.00" departDelay="0.00" arrival="223.00" arrivalLane="54i_0" arrivalPos="10.00" arrivalSpeed="10.91" duration="110.00" routeLength="1015.04" waitingTime="1.00" waitingCount="1" stopTime="0.00" timeLoss="31.80" rerouteNo="0" devices="tripinfo_WN_4" vType="cars" speedFactor="0.96" vaporized=""/>
    <tripinfo id="WN_5" depart="118.00" departLane="51o_2" departPos="5.10" departSpeed="0.00" departDelay="2.00" arrival="223.00" arrivalLane="54i_2" arrivalPos="10.00" arrivalSpeed="11.84" duration="105.00" routeLength="1015.04" waitingTime="0.00" waitingCount="0" stopTime="0.00" timeLoss="29.70" rerouteNo="0" devices="tripinfo_WN_5" vType="cars" speedFactor="1.04" vaporized=""/>
    <tripinfo id="SN_6" depart="135.00" departLane="53o_0" departPos="5.10" departSpeed="0.00" departDelay="1.00" arrival="224.00" arrivalLane="54i_1" arrivalPos="10.00" arrivalSpeed="12.07" duration="89.00" routeLength="1015.18" waitingTime="0.00" waitingCount="0" stopTime="0.00" timeLoss="15.41" rerouteNo="0" devices="tripinfo_SN_6" vType="cars" speedFactor="1.06" vaporized=""/>
    <tripinfo id="SN_5" depart="130.00" departLane="53o_0" departPos="5.10" departSpeed="0.00" departDelay="0.00" arrival="226.00" arrivalLane="54i_0" arrivalPos="10.00" arrivalSpeed="10.70" duration="96.00" routeLength="1015.18" waitingTime="0.00" waitingCount="0" stopTime="0.00" timeLoss="16.17" rerouteNo="0" devices="tripinfo_SN_5" vType="cars" speedFactor="0.92" vaporized=""/>
    <tripinfo id="WN_6" depart="147.00" departLane="51o_2" departPos="5.10" departSpeed="0.00" departDelay="0.00" arrival="239.00" arrivalLane="54i_0" arrivalPos="10.00" arrivalSpeed="12.07" duration="92.00" routeLength="1015.04" waitingTime="0.00" waitingCount="0" stopTime="0.00" timeLoss="17.91" rerouteNo="0" devices="tripinfo_WN_6" vType="cars" speedFactor="1.07" vaporized=""/>
    <tripinfo id="WE_5" depart="140.00" departLane="51o_0" departPos="5.10" departSpeed="0.00" departDelay="0.00" arrival="241.00" arrivalLane="52i_0" arrivalPos="10.00" arrivalSpeed="11.64" duration="101.00" routeLength="1015.18" waitingTime="2.00" waitingCount="1" stopTime="0.00" timeLoss="27.74" rerouteNo="0" devices="tripinfo_WE_5" vType="cars" speedFactor="1.06" vaporized=""/>
    <tripinfo id="NS_4" depart="152.00" departLane="54o_0" departPos="5.10" departSpeed="0.00" departDelay="0.00" arrival="243.00" arrivalLane="53i_0" arrivalPos="10.00" arrivalSpeed="11.97" duration="91.00" routeLength="1015.18" waitingTime="0.00" waitingCount="0" stopTime="0.00" timeLoss="17.37" rerouteNo="0" devices="tripinfo_NS_4" vType="cars" speedFactor="1.06" vaporized=""/>
    <tripinfo id="SN_7" depart="157.00" departLane="53o_0" departPos="5.10" departSpeed="0.00" departDelay="0.00" arrival="247.00" arrivalLane="54i_0" arrivalPos="10.00" arrivalSpeed="11.88" duration="90.00" routeLength="1015.18" waitingTime="0.00" waitingCount="0" stopTime="0.00" timeLoss="15.37" rerouteNo="0" devices="tripinfo_SN_7" vType="cars" speedFactor="1.04" vaporized=""/>
    <tripinfo id="NS_5" depart="159.00" departLane="54o_0" departPos="5.10" departSpeed="0.00" departDelay="0.00" arrival="250.00" arrivalLane="53i_0" arrivalPos="10.00" arrivalSpeed="11.85" duration="91.00" routeLength="1015.18" waitingTime="0.00" waitingCount="0" stopTime="0.00" timeLoss="16.05" rerouteNo="0" devices="tripinfo_NS_5" vType="cars" speedFactor="1.03" vaporized=""/>
    <tripinfo id="EN_3" depart="149.00" departLane="52o_0" departPos="5.10" departSpeed="0.00" departDelay="0.00" arrival="253.00" arrivalLane="54i_0" arrivalPos="10.00" arrivalSpeed="9.81" duration="104.00" routeLength="996.93" waitingTime="0.00" waitingCount="0" stopTime="0.00" timeLoss="17.84" rerouteNo="0" devices="tripinfo_EN_3" vType="cars" speedFactor="0.82" vaporized=""/>
    <tripinfo id="WE_6" depart="161.00" departLane="51o_0" departPos="5.10" departSpeed="0.00" departDelay="0.00" arrival="257.00" arrivalLane="52i_0" arrivalPos="10.00" arrivalSpeed="11.48" duration="96.00" routeLength="1015.18" waitingTime="0.00" waitingCount="0" stopTime="0.00" timeLoss="20.18" rerouteNo="0" devices="tripinfo_WE_6" vType="cars" speedFactor="1.01" vaporized=""/>
    <tripinfo id="SW_1" depart="160.00" departLane="53o_2" departPos="5.10" departSpeed="0.00" departDelay="0.00" arrival="259.00" arrivalLane="51i_0" arrivalPos="10.00" arrivalSpeed="10.10" duration="99.00" routeLength="1015.04" waitingTime="0.00" waitingCount="0" stopTime="0.00" timeLoss="16.30" rerouteNo="0" devices="tripinfo_SW_1" vType="cars" speedFactor="0.89" vaporized=""/>
    <tripinfo id="WE_7" depart="171.00" departLane="51o_0" departPos="5.10" departSpeed="0.00" departDelay="0.00" arrival="264.00" arrivalLane="52i_0" arrivalPos="10.00" arrivalSpeed="10.70" duration="93.00" routeLength="1015.18" waitingTime="0.00" waitingCount="0" stopTime="0.00" timeLoss="15.13" rerouteNo="0" devices="tripinfo_WE_7" vType="cars" speedFactor="0.95" vaporized=""/>
    <tripinfo id="EW_6" depart="157.00" departLane="52o_0" departPos="5.10" departSpeed="0.00" departDelay="0.00" arrival="268.00" arrivalLane="51i_0" arrivalPos="10.00" arrivalSpeed="10.65" duration="111.00" routeLength="1015.18" waitingTime="3.00" waitingCount="1" stopTime="0.00" timeLoss="30.67" rerouteNo="0" devices="tripinfo_EW_6" vType="cars" speedFactor="0.92" vaporized=""/>
    <tripinfo id="SN_8" depart="174.00" departLane="53o_0" departPos="5.10" departSpeed="0.00" departDelay="0.00" arrival="273.00" arrivalLane="54i_0" arrivalPos="10.00" arrivalSpeed="10.12" duration="99.00" routeLength="1015.18" waitingTime="0.00" waitingCount="0" stopTime="0.00" timeLoss="16.35" rerouteNo="0" devices="tripinfo_SN_8" vType="cars" speedFactor="0.88" vaporized=""/>
    <tripinfo id="NE_3" depart="172.00" departLane="54o_2" departPos="5.10" departSpeed="0.00" departDelay="0.00" arrival="274.00" arrivalLane="52i_0" arrivalPos="10.00" arrivalSpeed="12.53" duration="102.00" routeLength="1015.04" waitingTime="0.00" waitingCount="0" stopTime="0.00" timeLoss="29.17" rerouteNo="0" devices="tripinfo_NE_3" vType="cars" speedFactor="1.09" vaporized=""/>
    <tripinfo id="NW_3" depart="166.00" departLane="54o_0" departPos="5.10" departSpeed="0.00" departDelay="0.00" arrival="275.00" arrivalLane="51i_0" arrivalPos="10.00" arrivalSpeed="10.68" duration="109.00" routeLength="996.93" waitingTime="5.00" waitingCount="1" stopTime="0.00" timeLoss="29.48" rerouteNo="0" devices="tripinfo_NW_3" vType="cars" speedFactor="0.91" vaporized=""/>
    <tripinfo id="NW_4" depart="171.00" departLane="54o_0" departPos="5.10" departSpeed="0.00" departDelay="0.00" arrival="276.00" arrivalLane="51i_1" arrivalPos="10.00" arrivalSpeed="11.14" duration="105.00" routeLength="996.93" waitingTime="1.00" waitingCount="1" stopTime="0.00" timeLoss="28.05" rerouteNo="0" devices="tripinfo_NW_4" vType="cars" speedFactor="0.97" vaporized=""/>
    <tripinfo id="EW_7" depart="172.00" departLane="52o_0" departPos="5.10" departSpeed="0.00" departDelay="0.00" arrival="282.00" arrivalLane="51i_0" arrivalPos="10.00" arrivalSpeed="11.35" duration="110.00" routeLength="1015.18" waitingTime="8.00" waitingCount="1" stopTime="0.00" timeLoss="35.62" rerouteNo="0" devices="tripinfo_EW_7" vType="cars" speedFactor="1.03" vaporized=""/>
    <tripinfo id="EW_10" depart="189.00" departLane="52o_0" departPos="5.10" departSpeed="0.00" departDelay="0.00" arrival="284.00" arrivalLane="51i_0" arrivalPos="10.00" arrivalSpeed="12.83" duration="95.00" routeLength="1015.18" waitingTime="0.00" waitingCount="0" stopTime="0.00" timeLoss="24.22" rerouteNo="0" devices="tripinfo_EW_10" vType="cars" speedFactor="1.13" vaporized=""/>
    <tripinfo id="EW_9" depart="180.00" departLane="52o_1" departPos="5.10" departSpeed="0.00" departDelay="0.00" arrival="285.00" arrivalLane="51i_0" arrivalPos="10.00" arrivalSpeed="11.09" duration="105.00" routeLength="1015.18" waitingTime="0.00" waitingCount="0" stopTime="0.00" timeLoss="26.33" rerouteNo="0" devices="tripinfo_EW_9" vType="cars" speedFactor="0.95" vaporized=""/>
    <tripinfo id="EW_8" depart="177.00" departLane="52o_0" departPos="5.10" departSpeed="0.00" departDelay="1.00" arrival="286.00" arrivalLane="51i_2" arrivalPos="10.00" arrivalSpeed="11.54" duration="109.00" routeLength="1015.18" waitingTime="3.00" waitingCount="1" stopTime="0.00" timeLoss="33.32" rerouteNo="0" devices="tripinfo_EW_8" vType="cars" speedFactor="1.01" vaporized=""/>
    <tripinfo id="ES_1" depart="172.00" departLane="52o_2" departPos="5.10" departSpeed="0.00" departDelay="0.00" arrival="291.00" arrivalLane="53i_0" arrivalPos="10.00" arrivalSpeed="9.82" duration="119.00" routeLength="1015.04" waitingTime="8.00" waitingCount="1" stopTime="0.00" timeLoss="34.08" rerouteNo="0" devices="tripinfo_ES_1" vType="cars" speedFactor="0.85" vaporized=""/>
    <tripinfo id="WE_9" depart="206.00" departLane="51o_0" departPos="5.10" departSpeed="0.00" departDelay="0.00" arrival="298.00" arrivalLane="52i_0" arrivalPos="10.00" arrivalSpeed="11.25" duration="92.00" routeLength="1015.18" waitingTime="0.00" waitingCount="0" stopTime="0.00" timeLoss="15.48" rerouteNo="0" devices="tripinfo_WE_9" vType="cars" speedFactor="0.99" vaporized=""/>
    <tripinfo id="WN_7" depart="197.00" departLane="51o_2" departPos="5.10" departSpeed="0.00" departDelay="0.00" arrival="303.00" arrivalLane="54i_1" arrivalPos="10.00" arrivalSpeed="14.67" duration="106.00" routeLength="1015.04" waitingTime="5.00" waitingCount="2" stopTime="0.00" timeLoss="38.77" rerouteNo="0" devices="tripinfo_WN_7" vType="cars" speedFactor="1.25" vaporized=""/>
    <tripinfo id="EN_4" depart="204.00" departLane="52o_0" departPos="5.10" departSpeed="0.00" departDelay="0.00" arrival="308.00" arrivalLane="54i_0" arrivalPos="10.00" arrivalSpeed="10.55" duration="104.00" routeLength="996.93" waitingTime="0.00" waitingCount="0" stopTime="0.00" timeLoss="23.10" rerouteNo="0" devices="tripinfo_EN_4" vType="cars" speedFactor="0.90" vaporized=""/>
    <tripinfo id="EW_11" depart="199.00" departLane="52o_0" departPos="5.10" departSpeed="0.00" departDelay="0.00" arrival="310.00" arrivalLane="51i_0" arrivalPos="10.00" arrivalSpeed="9.68" duration="111.00" routeLength="1015.18" waitingTime="1.00" waitingCount="1" stopTime="0.00" timeLoss="27.66" rerouteNo="0" devices="tripinfo_EW_11" vType="cars" speedFactor="0.86" vaporized=""/>
    <tripinfo id="WN_8" depart="208.00" departLane="51o_2" departPos="5.10" departSpeed="0.00" departDelay="0.00" arrival="310.00" arrivalLane="54i_0" arrivalPos="10.00" arrivalSpeed="12.02" duration="102.00" routeLength="1015.04" waitingTime="0.00" waitingCount="0" stopTime="0.00" timeLoss="28.36" rerouteNo="0" devices="tripinfo_WN_8" vType="cars" speedFactor="1.07" vaporized=""/>
    <tripinfo id="WE_8" depart="197.00" departLane="51o_0" departPos="5.10" departSpeed="0.00" departDelay="0.00" arrival="314.00" arrivalLane="52i_0" arrivalPos="10.00" arrivalSpeed="9.22" duration="117.00" routeLength="1015.18" waitingTime="1.00" waitingCount="1" stopTime="0.00" timeLoss="27.88" rerouteNo="0" devices="tripinfo_WE_8" vType="cars" speedFactor="0.80" vaporized=""/>
    <tripinfo id="SE_2" depart="209.00" departLane="53o_0" departPos="5.10" departSpeed="0.00" departDelay="0.00" arrival="317.00" arrivalLane="52i_0" arrivalPos="10.00" arrivalSpeed="10.15" duration="108.00" routeLength="996.93" waitingTime="2.00" waitingCount="1" stopTime="0.00" timeLoss="26.91" rerouteNo="0" devices="tripinfo_SE_2" vType="cars" speedFactor="0.88" vaporized=""/>
    <tripinfo id="NS_6" depart="206.00" departLane="54o_0" departPos="5.10" departSpeed="0.00" departDelay="0.00" arrival="320.00" arrivalLane="53i_0" arrivalPos="10.00" arrivalSpeed="10.87" duration="114.00" routeLength="1015.18" waitingTime="6.00" waitingCount="2" stopTime="0.00" timeLoss="35.19" rerouteNo="0" devices="tripinfo_NS_6" vType="cars" speedFactor="0.94" vaporized=""/>
    <tripinfo id="EN_5" depart="209.00" departLane="52o_0" departPos="5.10" departSpeed="0.00" departDelay="1.00" arrival="320.00" arrivalLane="54i_0" arrivalPos="10.00" arrivalSpeed="11.26" duration="111.00" routeLength="996.93" waitingTime="11.00" waitingCount="1" stopTime="0.00" timeLoss="37.02" rerouteNo="0" devices="tripinfo_EN_5" vType="cars" speedFactor="1.03" vaporized=""/>
    <tripinfo id="WN_9" depart="222.00" departLane="51o_2" departPos="5.10" departSpeed="0.00" departDelay="0.00" arrival="324.00" arrivalLane="54i_0" arrivalPos="10.00" arrivalSpeed="11.70" duration="102.00" routeLength="1015.04" waitingTime="0.00" waitingCount="0" stopTime="0.00" timeLoss="27.87" rerouteNo="0" devices="tripinfo_WN_9" vType="cars" speedFactor="1.05" vaporized=""/>
    <tripinfo id="WE_10" depart="214.00" departLane="51o_0" departPos="5.10" departSpeed="0.00" departDelay="0.00" arrival="329.00" arrivalLane="52i_0" arrivalPos="10.00" arrivalSpeed="10.82" duration="115.00" routeLength="1015.18" waitingTime="7.00" waitingCount="1" stopTime="0.00" timeLoss="36.35" rerouteNo="0" devices="tripinfo_WE_10" vType="cars" speedFactor="0.95" vaporized=""/>
    <tripinfo id="SN_9" depart="242.00" departLane="53o_0" departPos="5.10" departSpeed="0.00" departDelay="0.00" arrival="332.00" arrivalLane="54i_0" arrivalPos="10.00" arrivalSpeed="11.74" duration="90.00" routeLength="1015.18" waitingTime="0.00" waitingCount="0" stopTime="0.00" timeLoss="15.23" rerouteNo="0" devices="tripinfo_SN_9" vType="cars" speedFactor="1.02" vaporized=""/>
    <tripinfo id="ES_2" depart="229.00" departLane="52o_2" departPos="5.10" departSpeed="0.00" departDelay="0.00" arrival="338.00" arrivalLane="53i_0" arrivalPos="10.00" arrivalSpeed="10.16" duration="109.00" routeLength="1015.04" waitingTime="0.00" waitingCount="0" stopTime="0.00" timeLoss="25.63" rerouteNo="0" devices="tripinfo_ES_2" vType="cars" speedFactor="0.87" vaporized=""/>
    <tripinfo id="NE_4" depart="223.00" departLane="54o_2" departPos="5.10" departSpeed="0.00" departDelay="0.00" arrival="339.00" arrivalLane="52i_1" arrivalPos="10.00" arrivalSpeed="12.82" duration="116.00" routeLength="1015.04" waitingTime="14.00" waitingCount="2" stopTime="0.00" timeLoss="45.61" rerouteNo="0" devices="tripinfo_NE_4" vType="cars" speedFactor="1.15" vaporized=""/>
    <tripinfo id="WE_11" depart="238.00" departLane="51o_0" departPos="5.10" departSpeed="0.00" departDelay="0.00" arrival="340.00" arrivalLane="52i_0" arrivalPos="10.00" arrivalSpeed="12.47" duration="102.00" routeLength="1015.18" waitingTime="1.00" waitingCount="1" stopTime="0.00" timeLoss="30.16" rerouteNo="0" devices="tripinfo_WE_11" vType="cars" speedFactor="1.10" vaporized=""/>