<?xml version="1.0" encoding="UTF-8"?>

<!-- generated on 2026-04-10T04:13:12.484977+05:30 by Eclipse SUMO sumo 1.25.0
<sumoConfiguration xmlns:xsi="http://www.w3.org/2001/XMLSchema-instance" xsi:noNamespaceSchemaLocation="http://sumo.dlr.de/xsd/sumoConfiguration.xsd">

    <input>
        <net-file value="./cross.net.xml"/>
        <route-files value="./cross.rou.xml"/>
    </input>

    <output>
        <tripinfo-output value="baseline_tripinfo.xml"/>
    </output>

    <time>
        <step-length value="5"/>
    </time>

    <report>
        <no-warnings value="true"/>
    </report>

    <traci_server>
        <remote-port value="35529"/>
    </traci_server>

</sumoConfiguration>
-->

<tripinfos xmlns:xsi="http://www.w3.org/2001/XMLSchema-instance" xsi:noNamespaceSchemaLocation="http://sumo.dlr.de/xsd/tripinfo_file.xsd">
    <tripinfo id="EW_0" depart="5.00" departLane="52o_0" departPos="5.10" departSpeed="0.00" departDelay="2.00" arrival="105.00" arrivalLane="51i_0" arrivalPos="10.00" arrivalSpeed="10.33" duration="100.00" routeLength="1015.18" waitingTime="0.00" waitingCount="0" stopTime="0.00" timeLoss="22.19" rerouteNo="0" devices="tripinfo_EW_0" vType="cars" speedFactor="1.01" vaporized=""/>
    <tripinfo id="WE_0" depart="10.00" departLane="51o_0" departPos="5.10" departSpeed="0.00" departDelay="0.00" arrival="105.00" arrivalLane="52i_0" arrivalPos="10.00" arrivalSpeed="11.39" duration="95.00" routeLength="1015.18" waitingTime="0.00" waitingCount="0" stopTime="0.00" timeLoss="17.01" rerouteNo="0" devices="tripinfo_WE_0" vType="cars" speedFactor="1.03" vaporized=""/>
    <tripinfo id="WN_0" depart="10.00" departLane="51o_2" departPos="5.10" departSpeed="0.00" departDelay="2.00" arrival="125.00" arrivalLane="54i_0" arrivalPos="10.00" arrivalSpeed="10.54" duration="115.00" routeLength="1015.04" waitingTime="5.00" waitingCount="1" stopTime="0.00" timeLoss="41.78" rerouteNo="0" devices="tripinfo_WN_0" vType="cars" speedFactor="1.08" vaporized=""/>
    <tripinfo id="SE_0" depart="25.00" departLane="53o_0" departPos="5.10" departSpeed="0.00" departDelay="4.00" arrival="125.00" arrivalLane="52i_0" arrivalPos="10.00" arrivalSpeed="10.07" duration="100.00" routeLength="987.90" waitingTime="0.00" waitingCount="0" stopTime="0.00" timeLoss="26.62" rerouteNo="0" devices="tripinfo_SE_0" vType="cars" speedFactor="1.05" vaporized=""/>
    <tripinfo id="WN_1" depart="25.00" departLane="51o_2" departPos="5.10" departSpeed="0.00" departDelay="1.00" arrival="125.00" arrivalLane="54i_0" arrivalPos="10.00" arrivalSpeed="9.24" duration="100.00" routeLength="996.53" waitingTime="0.00" waitingCount="0" stopTime="0.00" timeLoss="20.22" rerouteNo="0" devices="tripinfo_WN_1" vType="cars" speedFactor="0.94" vaporized=""/>
    <tripinfo id="SE_1" depart="35.00" departLane="53o_0" departPos="5.10" departSpeed="0.00" departDelay="4.00" arrival="125.00" arrivalLane="52i_1" arrivalPos="10.00" arrivalSpeed="12.58" duration="90.00" routeLength="987.90" waitingTime="0.00" waitingCount="0" stopTime="0.00" timeLoss="15.62" rerouteNo="0" devices="tripinfo_SE_1" vType="cars" speedFactor="1.03" vaporized=""/>
    <tripinfo id="WE_1" depart="20.00" departLane="51o_0" departPos="5.10" departSpeed="0.00" departDelay="4.00" arrival="130.00" arrivalLane="52i_0" arrivalPos="10.00" arrivalSpeed="12.87" duration="110.00" routeLength="1015.18" waitingTime="0.00" waitingCount="0" stopTime="0.00" timeLoss="21.61" rerouteNo="0" devices="tripinfo_WE_1" vType="cars" speedFactor="0.83" vaporized=""/>
    <tripinfo id="SN_0" depart="0.00" departLane="53o_0" departPos="5.10" departSpeed="0.00" departDelay="0.00" arrival="140.00" arrivalLane="54i_0" arrivalPos="10.00" arrivalSpeed="11.77" duration="140.00" routeLength="1015.18" waitingTime="40.00" waitingCount="1" stopTime="0.00" timeLoss="66.97" rerouteNo="0" devices="tripinfo_SN_0" vType="cars" speedFactor="1.06" vaporized=""/>
    <tripinfo id="SN_1" depart="45.00" departLane="53o_0" departPos="5.10" departSpeed="0.00" departDelay="3.00" arrival="145.00" arrivalLane="54i_0" arrivalPos="10.00" arrivalSpeed="10.12" duration="100.00" routeLength="1015.18" waitingTime="0.00" waitingCount="0" stopTime="0.00" timeLoss="19.71" rerouteNo="0" devices="tripinfo_SN_1" vType="cars" speedFactor="0.93" vaporized=""/>
    <tripinfo id="EW_2" depart="55.00" departLane="52o_0" departPos="5.10" departSpeed="0.00" departDelay="2.00" arrival="145.00" arrivalLane="51i_0" arrivalPos="10.00" arrivalSpeed="11.95" duration="90.00" routeLength="987.90" waitingTime="0.00" waitingCount="0" stopTime="0.00" timeLoss="20.51" rerouteNo="0" devices="tripinfo_EW_2" vType="cars" speedFactor="1.16" vaporized=""/>
    <tripinfo id="NS_0" depart="5.00" departLane="54o_0" departPos="5.10" departSpeed="0.00" departDelay="4.00" arrival="150.00" arrivalLane="53i_0" arrivalPos="10.00" arrivalSpeed="12.23" duration="145.00" routeLength="1015.18" waitingTime="20.00" waitingCount="3" stopTime="0.00" timeLoss="63.82" rerouteNo="0" devices="tripinfo_NS_0" vType="cars" speedFactor="0.94" vaporized=""/>
    <tripinfo id="NE_1" depart="35.00" departLane="54o_2" departPos="5.10" departSpeed="0.00" departDelay="1.00" arrival="150.00" arrivalLane="52i_0" arrivalPos="10.00" arrivalSpeed="11.62" duration="115.00" routeLength="996.53" waitingTime="10.00" waitingCount="2" stopTime="0.00" timeLoss="40.89" rerouteNo="0" devices="tripinfo_NE_1" vType="cars" speedFactor="1.05" vaporized=""/>
    <tripinfo id="EN_0" depart="50.00" departLane="52o_0" departPos="5.10" departSpeed="0.00" departDelay="2.00" arrival="150.00" arrivalLane="54i_0" arrivalPos="10.00" arrivalSpeed="8.95" duration="100.00" routeLength="987.90" waitingTime="0.00" waitingCount="0" stopTime="0.00" timeLoss="22.08" rerouteNo="0" devices="tripinfo_EN_0" vType="cars" speedFactor="0.94" vaporized=""/>
    <tripinfo id="SW_0" depart="30.00" departLane="53o_2" departPos="5.10" departSpeed="0.00" departDelay="1.00" arrival="155.00" arrivalLane="51i_0" arrivalPos="10.00" arrivalSpeed="10.29" duration="125.00" routeLength="1015.04" waitingTime="5.00" waitingCount="1" stopTime="0.00" timeLoss="50.67" rerouteNo="0" devices="tripinfo_SW_0" vType="cars" speedFactor="1.09" vaporized=""/>
    <tripinfo id="NE_2" depart="55.00" departLane="54o_2" departPos="5.10" departSpeed="0.00" departDelay="4.00" arrival="155.00" arrivalLane="52i_0" arrivalPos="10.00" arrivalSpeed="9.17" duration="100.00" routeLength="987.90" waitingTime="0.00" waitingCount="0" stopTime="0.00" timeLoss="22.39" rerouteNo="0" devices="tripinfo_NE_2" vType="cars" speedFactor="0.94" vaporized=""/>
    <tripinfo id="SN_2" depart="50.00" departLane="53o_0" departPos="5.10" departSpeed="0.00" departDelay="3.00" arrival="160.00" arrivalLane="54i_0" arrivalPos="10.00" arrivalSpeed="12.23" duration="110.00" routeLength="1015.18" waitingTime="0.00" waitingCount="0" stopTime="0.00" timeLoss="24.64" rerouteNo="0" devices="tripinfo_SN_2" vType="cars" speedFactor="0.88" vaporized=""/>
    <tripinfo id="EW_3" depart="70.00" departLane="52o_0" departPos="5.10" departSpeed="0.00" departDelay="0.00" arrival="160.00" arrivalLane="51i_0" arrivalPos="10.00" arrivalSpeed="10.45" duration="90.00" routeLength="987.90" waitingTime="0.00" waitingCount="0" stopTime="0.00" timeLoss="16.50" rerouteNo="0" devices="tripinfo_EW_3" vType="cars" speedFactor="1.01" vaporized=""/>
    <tripinfo id="NE_0" depart="25.00" departLane="54o_2" departPos="5.10" departSpeed="0.00" departDelay="2.00" arrival="175.00" arrivalLane="52i_0" arrivalPos="10.00" arrivalSpeed="9.33" duration="150.00" routeLength="1015.04" waitingTime="25.00" waitingCount="3" stopTime="0.00" timeLoss="67.18" rerouteNo="0" devices="tripinfo_NE_0" vType="cars" speedFactor="0.89" vaporized=""/>
    <tripinfo id="WE_2" depart="40.00" departLane="51o_0" departPos="5.10" departSpeed="0.00" departDelay="1.00" arrival="185.00" arrivalLane="52i_1" arrivalPos="10.00" arrivalSpeed="14.80" duration="145.00" routeLength="1015.18" waitingTime="30.00" waitingCount="2" stopTime="0.00" timeLoss="70.71" rerouteNo="0" devices="tripinfo_WE_2" vType="cars" speedFactor="1.12" vaporized=""/>
    <tripinfo id="WE_4" depart="85.00" departLane="51o_0" departPos="5.10" departSpeed="0.00" departDelay="1.00" arrival="185.00" arrivalLane="52i_0" arrivalPos="10.00" arrivalSpeed="8.48" duration="100.00" routeLength="987.90" waitingTime="0.00" waitingCount="0" stopTime="0.00" timeLoss="23.37" rerouteNo="0" devices="tripinfo_WE_4" vType="cars" speedFactor="0.92" vaporized=""/>
    <tripinfo id="EW_4" depart="95.00" departLane="52o_0" departPos="5.10" departSpeed="0.00" departDelay="2.00" arrival="185.00" arrivalLane="51i_1" arrivalPos="10.00" arrivalSpeed="16.31" duration="90.00" routeLength="1015.18" waitingTime="0.00" waitingCount="0" stopTime="0.00" timeLoss="16.32" rerouteNo="0" devices="tripinfo_EW_4" vType="cars" speedFactor="1.18" vaporized=""/>
    <tripinfo id="WE_3" depart="45.00" departLane="51o_0" departPos="5.10" departSpeed="0.00" departDelay="3.00" arrival="190.00" arrivalLane="52i_0" arrivalPos="10.00" arrivalSpeed="10.51" duration="145.00" routeLength="1015.18" waitingTime="30.00" waitingCount="2" stopTime="0.00" timeLoss="69.08" rerouteNo="0" devices="tripinfo_WE_3" vType="cars" speedFactor="0.99" vaporized=""/>
    <tripinfo id="NW_1" depart="80.00" departLane="54o_0" departPos="5.10" departSpeed="0.00" departDelay="3.00" arrival="190.00" arrivalLane="51i_0" arrivalPos="10.00" arrivalSpeed="11.64" duration="110.00" routeLength="987.90" waitingTime="0.00" waitingCount="0" stopTime="0.00" timeLoss="25.59" rerouteNo="0" devices="tripinfo_NW_1" vType="cars" speedFactor="0.83" vaporized=""/>
    <tripinfo id="NS_3" depart="100.00" departLane="54o_0" departPos="5.10" departSpeed="0.00" departDelay="6.00" arrival="190.00" arrivalLane="53i_0" arrivalPos="10.00" arrivalSpeed="11.25" duration="90.00" routeLength="987.90" waitingTime="0.00" waitingCount="0" stopTime="0.00" timeLoss="21.15" rerouteNo="0" devices="tripinfo_NS_3" vType="cars" speedFactor="1.15" vaporized=""/>
    <tripinfo id="WN_3" depart="100.00" departLane="51o_2" departPos="5.10" departSpeed="0.00" departDelay="5.00" arrival="190.00" arrivalLane="54i_1" arrivalPos="10.00" arrivalSpeed="11.49" duration="90.00" routeLength="1015.04" waitingTime="0.00" waitingCount="0" stopTime="0.00" timeLoss="20.73" rerouteNo="0" devices="tripinfo_WN_3" vType="cars" speedFactor="1.17" vaporized=""/>
    <tripinfo id="SN_4" depart="120.00" departLane="53o_0" departPos="5.10" departSpeed="0.00" departDelay="3.00" arrival="190.00" arrivalLane="54i_0" arrivalPos="10.00" arrivalSpeed="15.06" duration="70.00" routeLength="987.90" waitingTime="0.00" waitingCount="0" stopTime="0.00" timeLoss="18.34" rerouteNo="0" devices="tripinfo_SN_4" vType="cars" speedFactor="1.18" vaporized=""/>
    <tripinfo id="ES_0" depart="55.00" departLane="52o_2" departPos="5.10" departSpeed="0.00" departDelay="0.00" arrival="195.00" arrivalLane="53i_0" arrivalPos="10.00" arrivalSpeed="10.13" duration="140.00" routeLength="1015.04" waitingTime="25.00" waitingCount="1" stopTime="0.00" timeLoss="65.21" rerouteNo="0" devices="tripinfo_ES_0" vType="cars" speedFactor="1.02" vaporized=""/>
    <tripinfo id="WN_2" depart="95.00" departLane="51o_2" departPos="5.10" departSpeed="0.00" departDelay="3.00" arrival="195.00" arrivalLane="54i_0" arrivalPos="10.00" arrivalSpeed="10.93" duration="100.00" routeLength="1015.04" waitingTime="0.00" waitingCount="0" stopTime="0.00" timeLoss="27.52" rerouteNo="0" devices="tripinfo_WN_2" vType="cars" speedFactor="1.13" vaporized=""/>
    <tripinfo id="WN_4" depart="115.00" departLane="51o_2" departPos="5.10" departSpeed="0.00" departDelay="2.00" arrival="195.00" arrivalLane="54i_1" arrivalPos="10.00" arrivalSpeed="10.48" duration="80.00" routeLength="1015.04" waitingTime="0.00" waitingCount="0" stopTime="0.00" timeLoss="22.43" rerouteNo="0" devices="tripinfo_WN_4" vType="cars" speedFactor="0.99" vaporized=""/>
    <tripinfo id="EW_1" depart="30.00" departLane="52o_0" departPos="5.10" departSpeed="0.00" departDelay="4.00" arrival="200.00" arrivalLane="51i_0" arrivalPos="10.00" arrivalSpeed="8.21" duration="170.00" routeLength="1015.18" waitingTime="45.00" waitingCount="1" stopTime="0.00" timeLoss="85.37" rerouteNo="0" devices="tripinfo_EW_1" vType="cars" speedFactor="0.86" vaporized=""/>
    <tripinfo id="NW_2" depart="105.00" departLane="54o_0" departPos="5.10" departSpeed="0.00" departDelay="11.00" arrival="200.00" arrivalLane="51i_1" arrivalPos="10.00" arrivalSpeed="9.90" duration="95.00" routeLength="987.90" waitingTime="0.00" waitingCount="0" stopTime="0.00" timeLoss="21.97" rerouteNo="0" devices="tripinfo_NW_2" vType="cars" speedFactor="1.01" vaporized=""/>
    <tripinfo id="EN_1" depart="85.00" departLane="52o_0" departPos="5.10" departSpeed="0.00" departDelay="2.00" arrival="205.00" arrivalLane="54i_0" arrivalPos="10.00" arrivalSpeed="11.75" duration="120.00" routeLength="996.93" waitingTime="5.00" waitingCount="1" stopTime="0.00" timeLoss="36.22" rerouteNo="0" devices="tripinfo_EN_1" vType="cars" speedFactor="0.87" vaporized=""/>
    <tripinfo id="NS_1" depart="95.00" departLane="54o_0" departPos="5.10" departSpeed="0.00" departDelay="4.00" arrival="215.00" arrivalLane="53i_0" arrivalPos="10.00" arrivalSpeed="9.19" duration="120.00" routeLength="987.90" waitingTime="20.00" waitingCount="1" stopTime="0.00" timeLoss="44.10" rerouteNo="0" devices="tripinfo_NS_1" vType="cars" speedFactor="0.95" vaporized=""/>
    <tripinfo id="WN_5" depart="120.00" departLane="51o_2" departPos="5.10" departSpeed="0.00" departDelay="4.00" arrival="220.00" arrivalLane="54i_0" arrivalPos="10.00" arrivalSpeed="11.85" duration="100.00" routeLength="1015.04" waitingTime="0.00" waitingCount="0" stopTime="0.00" timeLoss="19.92" rerouteNo="0" devices="tripinfo_WN_5" vType="cars" speedFactor="0.97" vaporized=""/>
    <tripinfo id="SN_5" depart="130.00" departLane="53o_0" departPos="5.10" departSpeed="0.00" departDelay="0.00" arrival="230.00" arrivalLane="54i_0" arrivalPos="10.00" arrivalSpeed="9.84" duration="100.00" routeLength="987.90" waitingTime="0.00" waitingCount="0" stopTime="0.00" timeLoss="23.35" rerouteNo="0" devices="tripinfo_SN_5" vType="cars" speedFactor="0.90" vaporized=""/>
    <tripinfo id="SN_6" depart="135.00" departLane="53o_0" departPos="5.10" departSpeed="0.00" departDelay="1.00" arrival="230.00" arrivalLane="54i_1" arrivalPos="10.00" arrivalSpeed="10.71" duration="95.00" routeLength="1015.18" waitingTime="0.00" waitingCount="0" stopTime="0.00" timeLoss="20.20" rerouteNo="0" devices="tripinfo_SN_6" vType="cars" speedFactor="1.03" vaporized=""/>
    <tripinfo id="NW_0" depart="75.00" departLane="54o_0" departPos="5.10" departSpeed="0.00" departDelay="4.00" arrival="235.00" arrivalLane="51i_0" arrivalPos="10.00" arrivalSpeed="8.97" duration="160.00" routeLength="996.93" waitingTime="45.00" waitingCount="3" stopTime="0.00" timeLoss="82.67" rerouteNo="0" devices="tripinfo_NW_0" vType="cars" speedFactor="0.97" vaporized=""/>
    <tripinfo id="SN_3" depart="75.00" departLane="53o_0" departPos="5.10" departSpeed="0.00" departDelay="2.00" arrival="240.00" arrivalLane="54i_0" arrivalPos="10.00" arrivalSpeed="12.52" duration="165.00" routeLength="1015.18" waitingTime="45.00" waitingCount="2" stopTime="0.00" timeLoss="83.35" rerouteNo="0" devices="tripinfo_SN_3" vType="cars" speedFactor="0.89" vaporized=""/>
    <tripinfo id="NS_2" depart="95.00" departLane="54o_1" departPos="5.10" departSpeed="0.00" departDelay="3.00" arrival="240.00" arrivalLane="53i_0" arrivalPos="10.00" arrivalSpeed="9.74" duration="145.00" routeLength="1015.18" waitingTime="15.00" waitingCount="3" stopTime="0.00" timeLoss="65.19" rerouteNo="0" devices="tripinfo_NS_2" vType="cars" speedFactor="0.93" vaporized=""/>
    <tripinfo id="EN_3" depart="150.00" departLane="52o_0" departPos="5.10" departSpeed="0.00" departDelay="1.00" arrival="245.00" arrivalLane="54i_0" arrivalPos="10.00" arrivalSpeed="13.14" duration="95.00" routeLength="987.90" waitingTime="0.00" waitingCount="0" stopTime="0.00" timeLoss="21.38" rerouteNo="0" devices="tripinfo_EN_3" vType="cars" speedFactor="1.04" vaporized=""/>
    <tripinfo id="NS_4" depart="155.00" departLane="54o_0" departPos="5.10" departSpeed="0.00" departDelay="3.00" arrival="250.00" arrivalLane="53i_0" arrivalPos="10.00" arrivalSpeed="14.81" duration="95.00" routeLength="1015.18" waitingTime="0.00" waitingCount="0" stopTime="0.00" timeLoss="17.37" rerouteNo="0" devices="tripinfo_NS_4" vType="cars" speedFactor="1.04" vaporized=""/>
    <tripinfo id="EW_6" depart="160.00" departLane="52o_0" departPos="5.10" departSpeed="0.00" departDelay="3.00" arrival="255.00" arrivalLane="51i_0" arrivalPos="10.00" arrivalSpeed="15.50" duration="95.00" routeLength="987.90" waitingTime="0.00" waitingCount="0" stopTime="0.00" timeLoss="22.68" rerouteNo="0" devices="tripinfo_EW_6" vType="cars" speedFactor="1.09" vaporized=""/>
    <tripinfo id="WE_7" depart="175.00" departLane="51o_0" departPos="5.10" departSpeed="0.00" departDelay="4.00" arrival="260.00" arrivalLane="52i_0" arrivalPos="10.00" arrivalSpeed="11.72" duration="85.00" routeLength="987.90" waitingTime="0.00" waitingCount="0" stopTime="0.00" timeLoss="15.95" rerouteNo="0" devices="tripinfo_WE_7" vType="cars" speedFactor="1.17" vaporized=""/>
    <tripinfo id="WE_6" depart="165.00" departLane="51o_0" departPos="5.10" departSpeed="0.00" departDelay="4.00" arrival="265.00" arrivalLane="52i_0" arrivalPos="10.00" arrivalSpeed="8.02" duration="100.00" routeLength="987.90" waitingTime="0.00" waitingCount="0" stopTime="0.00" timeLoss="19.29" rerouteNo="0" devices="tripinfo_WE_6" vType="cars" speedFactor="0.85" vaporized=""/>
    <tripinfo id="EW_7" depart="175.00" departLane="52o_0" departPos="5.10" departSpeed="0.00" departDelay="3.00" arrival="265.00" arrivalLane="51i_0" arrivalPos="10.00" arrivalSpeed="11.86" duration="90.00" routeLength="987.90" waitingTime="0.00" waitingCount="0" stopTime="0.00" timeLoss="19.59" rerouteNo="0" devices="tripinfo_EW_7" vType="cars" speedFactor="1.10" vaporized=""/>
    <tripinfo id="SW_1" depart="160.00" departLane="53o_2" departPos="5.10" departSpeed="0.00" departDelay="0.00" arrival="270.00" arrivalLane="51i_0" arrivalPos="10.00" arrivalSpeed="12.54" duration="110.00" routeLength="1015.04" waitingTime="0.00" waitingCount="0" stopTime="0.00" timeLoss="25.53" rerouteNo="0" devices="tripinfo_SW_1" vType="cars" speedFactor="0.88" vaporized=""/>
    <tripinfo id="NW_4" depart="175.00" departLane="54o_0" departPos="5.10" departSpeed="0.00" departDelay="4.00" arrival="270.00" arrivalLane="51i_1" arrivalPos="10.00" arrivalSpeed="9.91" duration="95.00" routeLength="987.90" waitingTime="0.00" waitingCount="0" stopTime="0.00" timeLoss="21.81" rerouteNo="0" devices="tripinfo_NW_4" vType="cars" speedFactor="1.02" vaporized=""/>
    <tripinfo id="NW_3" depart="170.00" departLane="54o_0" departPos="5.10" departSpeed="0.00" departDelay="4.00" arrival="275.00" arrivalLane="51i_0" arrivalPos="10.00" arrivalSpeed="7.82" duration="105.00" routeLength="987.90" waitingTime="0.00" waitingCount="0" stopTime="0.00" timeLoss="24.07" rerouteNo="0" devices="tripinfo_NW_3" vType="cars" speedFactor="0.85" vaporized=""/>
    <tripinfo id="EW_8" depart="180.00" departLane="52o_0" departPos="5.10" departSpeed="0.00" departDelay="4.00" arrival="275.00" arrivalLane="51i_1" arrivalPos="10.00" arrivalSpeed="14.08" duration="95.00" routeLength="1015.18" waitingTime="0.00" waitingCount="0" stopTime="0.00" timeLoss="21.63" rerouteNo="0" devices="tripinfo_EW_8" vType="cars" speedFactor="1.14" vaporized=""/>
    <tripinfo id="EW_9" depart="180.00" departLane="52o_1" departPos="5.10" departSpeed="0.00" departDelay="0.00" arrival="275.00" arrivalLane="51i_0" arrivalPos="10.00" arrivalSpeed="9.40" duration="95.00" routeLength="1015.18" waitingTime="0.00" waitingCount="0" stopTime="0.00" timeLoss="20.59" rerouteNo="0" devices="tripinfo_EW_9" vType="cars" speedFactor="1.02" vaporized=""/>
    <tripinfo id="EN_2" depart="115.00" departLane="52o_0" departPos="5.10" departSpeed="0.00" departDelay="1.00" arrival="280.00" arrivalLane="54i_0" arrivalPos="10.00" arrivalSpeed="13.17" duration="165.00" routeLength="996.93" waitingTime="50.00" waitingCount="2" stopTime="0.00" timeLoss="88.75" rerouteNo="0" devices="tripinfo_EN_2" vType="cars" speedFactor="1.02" vaporized=""/>
    <tripinfo id="EW_5" depart="125.00" departLane="52o_0" departPos="5.10" departSpeed="0.00" departDelay="3.00" arrival="285.00" arrivalLane="51i_0" arrivalPos="10.00" arrivalSpeed="10.44" duration="160.00" routeLength="1015.18" waitingTime="50.00" waitingCount="2" stopTime="0.00" timeLoss="87.50" rerouteNo="0" devices="tripinfo_EW_5" vType="cars" speedFactor="1.10" vaporized=""/>
    <tripinfo id="WE_5" depart="140.00" departLane="51o_0" departPos="5.10" departSpeed="0.00" departDelay="0.00" arrival="285.00" arrivalLane="52i_0" arrivalPos="10.00" arrivalSpeed="10.01" duration="145.00" routeLength="1015.18" waitingTime="35.00" waitingCount="1" stopTime="0.00" timeLoss="64.59" rerouteNo="0" devices="tripinfo_WE_5" vType="cars" speedFactor="0.96" vaporized=""/>
    <tripinfo id="ES_1" depart="175.00" departLane="52o_2" departPos="5.10" departSpeed="0.00" departDelay="3.00" arrival="290.00" arrivalLane="53i_0" arrivalPos="10.00" arrivalSpeed="9.51" duration="115.00" routeLength="1015.04" waitingTime="0.00" waitingCount="0" stopTime="0.00" timeLoss="36.59" rerouteNo="0" devices="tripinfo_ES_1" vType="cars" speedFactor="1.00" vaporized=""/>
    <tripinfo id="EW_10" depart="190.00" departLane="52o_0" departPos="5.10" departSpeed="0.00" departDelay="1.00" arrival="290.00" arrivalLane="51i_0" arrivalPos="10.00" arrivalSpeed="12.69" duration="100.00" routeLength="1015.18" waitingTime="0.00" waitingCount="0" stopTime="0.00" timeLoss="20.54" rerouteNo="0" devices="tripinfo_EW_10" vType="cars" speedFactor="0.97" vaporized=""/>
    <tripinfo id="WE_8" depart="200.00" departLane="51o_0" departPos="5.10" departSpeed="0.00" departDelay="3.00" arrival="290.00" arrivalLane="52i_0" arrivalPos="10.00" arrivalSpeed="10.60" duration="90.00" routeLength="1015.18" waitingTime="0.00" waitingCount="0" stopTime="0.00" timeLoss="16.38" rerouteNo="0" devices="tripinfo_WE_8" vType="cars" speedFactor="1.08" vaporized=""/>
    <tripinfo id="WN_7" depart="200.00" departLane="51o_2" departPos="5.10" departSpeed="0.00" departDelay="3.00" arrival="290.00" arrivalLane="54i_0" arrivalPos="10.00" arrivalSpeed="11.79" duration="90.00" routeLength="996.53" waitingTime="0.00" waitingCount="0" stopTime="0.00" timeLoss="19.30" rerouteNo="0" devices="tripinfo_WN_7" vType="cars" speedFactor="1.12" vaporized=""/>
    <tripinfo id="EW_11" depart="200.00" departLane="52o_0" departPos="5.10" departSpeed="0.00" departDelay="1.00" arrival="295.00" arrivalLane="51i_0" arrivalPos="10.00" arrivalSpeed="10.22" duration="95.00" routeLength="1015.18" waitingTime="0.00" waitingCount="0" stopTime="0.00" timeLoss="17.62" rerouteNo="0" devices="tripinfo_EW_11" vType="cars" speedFactor="1.02" vaporized=""/>
    <tripinfo id="WN_6" depart="150.00" departLane="51o_2" departPos="5.10" departSpeed="0.00" departDelay="3.00" arrival="300.00" arrivalLane="54i_0" arrivalPos="10.00" arrivalSpeed="10.86" duration="150.00" routeLength="1015.04" waitingTime="25.00" waitingCount="2" stopTime="0.00" timeLoss="76.95" rerouteNo="0" devices="tripinfo_WN_6" vType="cars" speedFactor="1.09" vaporized=""/>
    <tripinfo id="EN_5" depart="210.00" departLane="52o_0" departPos="5.10" departSpeed="0.00" departDelay="2.00" arrival="305.00" arrivalLane="54i_0" arrivalPos="10.00" arrivalSpeed="9.05" duration="95.00" routeLength="987.90" waitingTime="0.00" waitingCount="0" stopTime="0.00" timeLoss="17.67" rerouteNo="0" devices="tripinfo_EN_5" vType="cars" speedFactor="0.91" vaporized=""/>
    <tripinfo id="SE_2" depart="210.00" departLane="53o_0" departPos="5.10" departSpeed="0.00" departDelay="1.00" arrival="305.00" arrivalLane="52i_0" arrivalPos="10.00" arrivalSpeed="9.60" duration="95.00" routeLength="987.90" waitingTime="0.00" waitingCount="0" stopTime="0.00" timeLoss="21.57" rerouteNo="0" devices="tripinfo_SE_2" vType="cars" speedFactor="1.04" vaporized=""/>
    <tripinfo id="WE_10" depart="215.00" departLane="51o_0" departPos="5.10" departSpeed="0.00" departDelay="1.00" arrival="305.00" arrivalLane="52i_1" arrivalPos="10.00" arrivalSpeed="9.63" duration="90.00" routeLength="987.90" waitingTime="0.00" waitingCount="0" stopTime="0.00" timeLoss="17.76" rerouteNo="0" devices="tripinfo_WE_10" vType="cars" speedFactor="1.02" vaporized=""/>
    <tripinfo id="NS_6" depart="210.00" departLane="54o_0" departPos="5.10" departSpeed="0.00" departDelay="4.00" arrival="315.00" arrivalLane="53i_0" arrivalPos="10.00" arrivalSpeed="12.21" duration="105.00" routeLength="987.90" waitingTime="0.00" waitingCount="0" stopTime="0.00" timeLoss="24.82" rerouteNo="0" devices="tripinfo_NS_6" vType="cars" speedFactor="0.88" vaporized=""/>
    <tripinfo id="WN_8" depart="210.00" departLane="51o_2" departPos="5.10" departSpeed="0.00" departDelay="2.00" arrival="315.00" arrivalLane="54i_0" arrivalPos="10.00" arrivalSpeed="9.98" duration="105.00" routeLength="1015.04" waitingTime="0.00" waitingCount="0" stopTime="0.00" timeLoss="23.39" rerouteNo="0" devices="tripinfo_WN_8" vType="cars" speedFactor="0.91" vaporized=""/>
    <tripinfo id="NE_4" depart="225.00" departLane="54o_2" departPos="5.10" departSpeed="0.00" departDelay="2.00" arrival="320.00" arrivalLane="52i_0" arrivalPos="10.00" arrivalSpeed="8.54" duration="95.00" routeLength="987.90" waitingTime="0.00" waitingCount="0" stopTime="0.00" timeLoss="18.62" rerouteNo="0" devices="tripinfo_NE_4" vType="cars" speedFactor="0.94" vaporized=""/>
    <tripinfo id="SN_7" depart="160.00" departLane="53o_0" departPos="5.10" departSpeed="0.00" departDelay="3.00" arrival="325.00" arrivalLane="54i_0" arrivalPos="10.00" arrivalSpeed="10.71" duration="165.00" routeLength="1015.18" waitingTime="60.00" waitingCount="1" stopTime="0.00" timeLoss="89.06" rerouteNo="0" devices="tripinfo_SN_7" vType="cars" speedFactor="1.00" vaporized=""/>
    <tripinfo id="WN_10" depart="230.00" departLane="51o_2" departPos="5.10" departSpeed="0.00" departDelay="7.00" arrival="325.00" arrivalLane="54i_1" arrivalPos="10.00" arrivalSpeed="10.21" duration="95.00" routeLength="987.90" waitingTime="0.00" waitingCount="0" stopTime="0.00" timeLoss="20.70" rerouteNo="0" devices="tripinfo_WN_10" vType="cars" speedFactor="0.97" vaporized=""/>
    <tripinfo id="NS_5" depart="160.00" departLane="54o_0" departPos="5.10" departSpeed="0.00" departDelay="1.00" arrival="330.00" arrivalLane="53i_0" arrivalPos="10.00" arrivalSpeed="8.02" duration="170.00" routeLength="1015.18" waitingTime="60.00" waitingCount="1" stopTime="0.00" timeLoss="89.16" rerouteNo="0" devices="tripinfo_NS_5" vType="cars" speedFactor="0.90" vaporized=""/>
    <tripinfo id="SN_8" depart="175.00" departLane="53o_0" departPos="5.10" departSpeed="0.00" departDelay="1.00" arrival="330.00" arrivalLane="54i_0" arrivalPos="10.00" arrivalSpeed="9.18" duration="155.00" routeLength="1015.18" waitingTime="40.00" waitingCount="1" stopTime="0.00" timeLoss="73.44" rerouteNo="0" devices="tripinfo_SN_8" vType="cars" speedFactor="0.90" vaporized=""/>
    <tripinfo id="NE_3" depart="175.00" departLane="54o_2" departPos="5.10" departSpeed="0.00" departDelay="3.00" arrival="335.00" arrivalLane="52i_0" arrivalPos="10.00" arrivalSpeed="13.99" duration="160.00" routeLength="1015.04" waitingTime="35.00" waitingCount="3" stopTime="0.00" timeLoss="80.89" rerouteNo="0" devices="tripinfo_NE_3" vType="cars" speedFactor="1.00" vaporized=""/>
    <tripinfo id="WE_11" depart="240.00" departLane="51o_0" departPos="5.10" departSpeed="0.00" departDelay="2.00" arrival="335.00" arrivalLane="52i_1" arrivalPos="10.00" arrivalSpeed="9.79" duration="95.00" routeLength="987.90" waitingTime="0.00" waitingCount="0" stopTime="0.00" timeLoss="21.57" rerouteNo="0" devices="tripinfo_WE_11" vType="cars" speedFactor="1.03" vaporized=""/>
    <tripinfo id="EW_12" depart="240.00" departLane="52o_0" departPos="5.10" departSpeed="0.00" departDelay="4.00" arrival="340.00" arrivalLane="51i_0" arrivalPos="10.00" arrivalSpeed="13.33" duration="100.00" routeLength="987.90" waitingTime="0.00" waitingCount="0" stopTime="0.00" timeLoss="22.53" rerouteNo="0" devices="tripinfo_EW_12" vType="cars" speedFactor="0.96" vaporized=""/>
    <tripinfo id="EN_6" depart="245.00" departLane="52o_0" departPos="5.10" departSpeed="0.00" departDelay="8.00" arrival="340.00" arrivalLane="54i_1" arrivalPos="10.00" arrivalSpeed="9.98" duration="95.00" routeLength="987.90" waitingTime="0.00" waitingCount="0" stopTime="0.00" timeLoss="21.93" rerouteNo="0" devices="tripinfo_EN_6" vType="cars" speedFactor="0.98" vaporized=""/>
    <tripinfo id="SN_9" depart="245.00" departLane="53o_0" departPos="5.10" departSpeed="0.00" departDelay="3.00" arrival="345.00" arrivalLane="54i_0" arrivalPos="10.00" arrivalSpeed="12.86" duration="100.00" routeLength="1015.18" waitingTime="0.00" waitingCount="0" stopTime="0.00" timeLoss="20.70" rerouteNo="0" devices="tripinfo_SN_9" vType="cars" speedFactor="0.98" vaporized=""/>
    <tripinfo id="WE_13" depart="255.00" departLane="51o_0" departPos="5.10" departSpeed="0.00" departDelay="0.00" arrival="350.00" arrivalLane="52i_0" arrivalPos="10.00" arrivalSpeed="9.11" duration="95.00" routeLength="987.90" waitingTime="0.00" waitingCount="0" stopTime="0.00" timeLoss="21.68" rerouteNo="0" devices="tripinfo_WE_13" vType="cars" speedFactor="1.00" vaporized=""/>