<?xml version="1.0" encoding="UTF-8"?>

<!-- generated on 2026-04-10T03:24:41.123417+05:30 by Eclipse SUMO sumo 1.25.0
<sumoConfiguration xmlns:xsi="http://www.w3.org/2001/XMLSchema-instance" xsi:noNamespaceSchemaLocation="http://sumo.dlr.de/xsd/sumoConfiguration.xsd">

    <input>
        <net-file value="./cross.net.xml"/>
        <route-files value="./cross.rou.xml"/>
    </input>

    <output>
        <tripinfo-output value="random_tripinfo.xml"/>
    </output>

    <processing>
        <time-to-teleport value="-1"/>
        <waiting-time-memory value="1000"/>
        <max-depart-delay value="-1"/>
    </processing>

    <traci_server>
        <remote-port value="45469"/>
    </traci_server>

    <random_number>
        <random value="true"/>
    </random_number>

</sumoConfiguration>
-->

<tripinfos xmlns:xsi="http://www.w3.org/2001/XMLSchema-instance" xsi:noNamespaceSchemaLocation="http://sumo.dlr.de/xsd/tripinfo_file.xsd">
    <tripinfo id="SN_0" depart="0.00" departLane="53o_0" departPos="5.10" departSpeed="0.00" departDelay="0.00" arrival="104.00" arrivalLane="54i_0" arrivalPos="10.00" arrivalSpeed="11.50" duration="104.00" routeLength="1015.18" waitingTime="3.00" waitingCount="1" stopTime="0.00" timeLoss="26.28" rerouteNo="0" devices="tripinfo_SN_0" vType="cars" speedFactor="0.97" vaporized=""/>
    <tripinfo id="NS_0" depart="1.00" departLane="54o_0" departPos="5.10" departSpeed="0.00" departDelay="0.00" arrival="106.00" arrivalLane="53i_0" arrivalPos="10.00" arrivalSpeed="10.58" duration="105.00" routeLength="1015.18" waitingTime="2.00" waitingCount="1" stopTime="0.00" timeLoss="24.87" rerouteNo="0" devices="tripinfo_NS_0" vType="cars" speedFactor="0.92" vaporized=""/>
    <tripinfo id="WE_1" depart="16.00" departLane="51o_0" departPos="5.10" departSpeed="0.00" departDelay="0.00" arrival="111.00" arrivalLane="52i_0" arrivalPos="10.00" arrivalSpeed="10.69" duration="95.00" routeLength="1015.18" waitingTime="0.00" waitingCount="0" stopTime="0.00" timeLoss="15.03" rerouteNo="0" devices="tripinfo_WE_1" vType="cars" speedFactor="0.93" vaporized=""/>
    <tripinfo id="WE_0" depart="10.00" departLane="51o_0" departPos="5.10" departSpeed="0.00" departDelay="0.00" arrival="112.00" arrivalLane="52i_1" arrivalPos="10.00" arrivalSpeed="11.95" duration="102.00" routeLength="1015.18" waitingTime="3.00" waitingCount="1" stopTime="0.00" timeLoss="27.05" rerouteNo="0" devices="tripinfo_WE_0" vType="cars" speedFactor="1.03" vaporized=""/>
    <tripinfo id="EW_1" depart="26.00" departLane="52o_0" departPos="5.10" departSpeed="0.00" departDelay="0.00" arrival="115.00" arrivalLane="51i_0" arrivalPos="10.00" arrivalSpeed="11.99" duration="89.00" routeLength="1015.18" waitingTime="0.00" waitingCount="0" stopTime="0.00" timeLoss="15.37" rerouteNo="0" devices="tripinfo_EW_1" vType="cars" speedFactor="1.06" vaporized=""/>
    <tripinfo id="EW_0" depart="3.00" departLane="52o_0" departPos="5.10" departSpeed="0.00" departDelay="0.00" arrival="119.00" arrivalLane="51i_0" arrivalPos="10.00" arrivalSpeed="9.97" duration="116.00" routeLength="1015.18" waitingTime="10.00" waitingCount="1" stopTime="0.00" timeLoss="33.41" rerouteNo="0" devices="tripinfo_EW_0" vType="cars" speedFactor="0.88" vaporized=""/>
    <tripinfo id="WN_1" depart="24.00" departLane="51o_2" departPos="5.10" departSpeed="0.00" departDelay="0.00" arrival="122.00" arrivalLane="54i_0" arrivalPos="10.00" arrivalSpeed="14.07" duration="98.00" routeLength="1015.04" waitingTime="4.00" waitingCount="1" stopTime="0.00" timeLoss="28.96" rerouteNo="0" devices="tripinfo_WN_1" vType="cars" speedFactor="1.21" vaporized=""/>
    <tripinfo id="WE_2" depart="39.00" departLane="51o_0" departPos="5.10" departSpeed="0.00" departDelay="0.00" arrival="124.00" arrivalLane="52i_0" arrivalPos="10.00" arrivalSpeed="13.47" duration="85.00" routeLength="1015.18" waitingTime="0.00" waitingCount="0" stopTime="0.00" timeLoss="15.33" rerouteNo="0" devices="tripinfo_WE_2" vType="cars" speedFactor="1.16" vaporized=""/>
    <tripinfo id="SW_0" depart="29.00" departLane="53o_2" departPos="5.10" departSpeed="0.00" departDelay="0.00" arrival="129.00" arrivalLane="51i_0" arrivalPos="10.00" arrivalSpeed="11.98" duration="100.00" routeLength="1015.04" waitingTime="2.00" waitingCount="1" stopTime="0.00" timeLoss="25.59" rerouteNo="0" devices="tripinfo_SW_0" vType="cars" speedFactor="1.04" vaporized=""/>
    <tripinfo id="SE_1" depart="31.00" departLane="53o_0" departPos="5.10" departSpeed="0.00" departDelay="0.00" arrival="129.00" arrivalLane="52i_0" arrivalPos="10.00" arrivalSpeed="11.94" duration="98.00" routeLength="996.93" waitingTime="0.00" waitingCount="0" stopTime="0.00" timeLoss="23.73" rerouteNo="0" devices="tripinfo_SE_1" vType="cars" speedFactor="1.03" vaporized=""/>
    <tripinfo id="WN_0" depart="8.00" departLane="51o_2" departPos="5.10" departSpeed="0.00" departDelay="0.00" arrival="133.00" arrivalLane="54i_0" arrivalPos="10.00" arrivalSpeed="10.21" duration="125.00" routeLength="1015.04" waitingTime="13.00" waitingCount="2" stopTime="0.00" timeLoss="40.56" rerouteNo="0" devices="tripinfo_WN_0" vType="cars" speedFactor="0.86" vaporized=""/>
    <tripinfo id="SE_0" depart="21.00" departLane="53o_0" departPos="5.10" departSpeed="0.00" departDelay="0.00" arrival="134.00" arrivalLane="52i_0" arrivalPos="10.00" arrivalSpeed="9.51" duration="113.00" routeLength="996.93" waitingTime="2.00" waitingCount="1" stopTime="0.00" timeLoss="28.43" rerouteNo="0" devices="tripinfo_SE_0" vType="cars" speedFactor="0.84" vaporized=""/>
    <tripinfo id="NE_0" depart="23.00" departLane="54o_2" departPos="5.10" departSpeed="0.00" departDelay="0.00" arrival="136.00" arrivalLane="52i_1" arrivalPos="10.00" arrivalSpeed="11.97" duration="113.00" routeLength="1015.04" waitingTime="8.00" waitingCount="2" stopTime="0.00" timeLoss="37.23" rerouteNo="0" devices="tripinfo_NE_0" vType="cars" speedFactor="1.03" vaporized=""/>
    <tripinfo id="WE_3" depart="42.00" departLane="51o_1" departPos="5.10" departSpeed="0.00" departDelay="0.00" arrival="140.00" arrivalLane="52i_0" arrivalPos="10.00" arrivalSpeed="10.12" duration="98.00" routeLength="1015.18" waitingTime="0.00" waitingCount="0" stopTime="0.00" timeLoss="15.02" rerouteNo="0" devices="tripinfo_WE_3" vType="cars" speedFactor="0.88" vaporized=""/>
    <tripinfo id="NE_1" depart="34.00" departLane="54o_2" departPos="5.10" departSpeed="0.00" departDelay="0.00" arrival="141.00" arrivalLane="52i_0" arrivalPos="10.00" arrivalSpeed="10.49" duration="107.00" routeLength="1015.04" waitingTime="1.00" waitingCount="1" stopTime="0.00" timeLoss="27.35" rerouteNo="0" devices="tripinfo_NE_1" vType="cars" speedFactor="0.93" vaporized=""/>
    <tripinfo id="NE_2" depart="51.00" departLane="54o_2" departPos="5.10" departSpeed="0.00" departDelay="0.00" arrival="142.00" arrivalLane="52i_1" arrivalPos="10.00" arrivalSpeed="11.72" duration="91.00" routeLength="1015.04" waitingTime="0.00" waitingCount="0" stopTime="0.00" timeLoss="15.18" rerouteNo="0" devices="tripinfo_NE_2" vType="cars" speedFactor="1.01" vaporized=""/>
    <tripinfo id="EW_2" depart="53.00" departLane="52o_0" departPos="5.10" departSpeed="0.00" departDelay="0.00" arrival="156.00" arrivalLane="51i_0" arrivalPos="10.00" arrivalSpeed="12.85" duration="103.00" routeLength="1015.18" waitingTime="2.00" waitingCount="1" stopTime="0.00" timeLoss="30.61" rerouteNo="0" devices="tripinfo_EW_2" vType="cars" speedFactor="1.09" vaporized=""/>
    <tripinfo id="EN_0" depart="48.00" departLane="52o_0" departPos="5.10" departSpeed="0.00" departDelay="0.00" arrival="158.00" arrivalLane="54i_0" arrivalPos="10.00" arrivalSpeed="11.47" duration="110.00" routeLength="996.93" waitingTime="7.00" waitingCount="1" stopTime="0.00" timeLoss="33.37" rerouteNo="0" devices="tripinfo_EN_0" vType="cars" speedFactor="0.97" vaporized=""/>
    <tripinfo id="ES_0" depart="55.00" departLane="52o_2" departPos="5.10" departSpeed="0.00" departDelay="0.00" arrival="166.00" arrivalLane="53i_0" arrivalPos="10.00" arrivalSpeed="9.75" duration="111.00" routeLength="1015.04" waitingTime="2.00" waitingCount="1" stopTime="0.00" timeLoss="24.13" rerouteNo="0" devices="tripinfo_ES_0" vType="cars" speedFactor="0.83" vaporized=""/>
    <tripinfo id="EW_3" depart="70.00" departLane="52o_0" departPos="5.10" departSpeed="0.00" departDelay="0.00" arrival="198.00" arrivalLane="51i_0" arrivalPos="10.00" arrivalSpeed="12.95" duration="128.00" routeLength="1015.18" waitingTime="30.00" waitingCount="1" stopTime="0.00" timeLoss="57.96" rerouteNo="0" devices="tripinfo_EW_3" vType="cars" speedFactor="1.15" vaporized=""/>
    <tripinfo id="EW_4" depart="93.00" departLane="52o_0" departPos="5.10" departSpeed="0.00" departDelay="0.00" arrival="199.00" arrivalLane="51i_1" arrivalPos="10.00" arrivalSpeed="13.37" duration="106.00" routeLength="1015.18" waitingTime="7.00" waitingCount="1" stopTime="0.00" timeLoss="35.92" rerouteNo="0" devices="tripinfo_EW_4" vType="cars" speedFactor="1.16" vaporized=""/>
    <tripinfo id="WE_4" depart="84.00" departLane="51o_0" departPos="5.10" departSpeed="0.00" departDelay="0.00" arrival="201.00" arrivalLane="52i_0" arrivalPos="10.00" arrivalSpeed="12.03" duration="117.00" routeLength="1015.18" waitingTime="15.00" waitingCount="1" stopTime="0.00" timeLoss="43.50" rerouteNo="0" devices="tripinfo_WE_4" vType="cars" speedFactor="1.06" vaporized=""/>
    <tripinfo id="EN_1" depart="83.00" departLane="52o_0" departPos="5.10" departSpeed="0.00" departDelay="0.00" arrival="203.00" arrivalLane="54i_0" arrivalPos="10.00" arrivalSpeed="11.55" duration="120.00" routeLength="996.93" waitingTime="18.00" waitingCount="1" stopTime="0.00" timeLoss="45.08" rerouteNo="0" devices="tripinfo_EN_1" vType="cars" speedFactor="1.01" vaporized=""/>
    <tripinfo id="NW_1" depart="77.00" departLane="54o_0" departPos="5.10" departSpeed="0.00" departDelay="0.00" arrival="214.00" arrivalLane="51i_0" arrivalPos="10.00" arrivalSpeed="11.53" duration="137.00" routeLength="996.93" waitingTime="34.00" waitingCount="1" stopTime="0.00" timeLoss="62.26" rerouteNo="0" devices="tripinfo_NW_1" vType="cars" speedFactor="1.02" vaporized=""/>
    <tripinfo id="WN_3" depart="97.00" departLane="51o_2" departPos="5.10" departSpeed="0.00" departDelay="2.00" arrival="214.00" arrivalLane="54i_0" arrivalPos="10.00" arrivalSpeed="11.30" duration="117.00" routeLength="1015.04" waitingTime="6.00" waitingCount="2" stopTime="0.00" timeLoss="39.24" rerouteNo="0" devices="tripinfo_WN_3" vType="cars" speedFactor="0.98" vaporized=""/>
    <tripinfo id="WN_2" depart="92.00" departLane="51o_2" departPos="5.10" departSpeed="0.00" departDelay="0.00" arrival="215.00" arrivalLane="54i_0" arrivalPos="10.00" arrivalSpeed="10.40" duration="123.00" routeLength="1015.04" waitingTime="9.00" waitingCount="2" stopTime="0.00" timeLoss="41.95" rerouteNo="0" devices="tripinfo_WN_2" vType="cars" speedFactor="0.91" vaporized=""/>
    <tripinfo id="NW_2" depart="102.00" departLane="54o_0" departPos="5.10" departSpeed="0.00" departDelay="8.00" arrival="215.00" arrivalLane="51i_1" arrivalPos="10.00" arrivalSpeed="12.50" duration="113.00" routeLength="996.93" waitingTime="12.00" waitingCount="1" stopTime="0.00" timeLoss="41.68" rerouteNo="0" devices="tripinfo_NW_2" vType="cars" speedFactor="1.09" vaporized=""/>
    <tripinfo id="SN_3" depart="73.00" departLane="53o_0" departPos="5.10" departSpeed="0.00" departDelay="0.00" arrival="216.00" arrivalLane="54i_1" arrivalPos="10.00" arrivalSpeed="11.64" duration="143.00" routeLength="1015.18" waitingTime="38.00" waitingCount="1" stopTime="0.00" timeLoss="66.02" rerouteNo="0" devices="tripinfo_SN_3" vType="cars" speedFactor="0.99" vaporized=""/>
    <tripinfo id="NS_2" depart="92.00" departLane="54o_1" departPos="5.10" departSpeed="0.00" departDelay="0.00" arrival="216.00" arrivalLane="53i_0" arrivalPos="10.00" arrivalSpeed="12.02" duration="124.00" routeLength="1015.18" waitingTime="21.00" waitingCount="2" stopTime="0.00" timeLoss="49.22" rerouteNo="0" devices="tripinfo_NS_2" vType="cars" speedFactor="1.02" vaporized=""/>
    <tripinfo id="SN_1" depart="42.00" departLane="53o_0" departPos="5.10" departSpeed="0.00" departDelay="0.00" arrival="218.00" arrivalLane="54i_0" arrivalPos="10.00" arrivalSpeed="10.42" duration="176.00" routeLength="1015.18" waitingTime="67.00" waitingCount="1" stopTime="0.00" timeLoss="94.42" rerouteNo="0" devices="tripinfo_SN_1" vType="cars" speedFactor="0.90" vaporized=""/>
    <tripinfo id="NW_0" depart="71.00" departLane="54o_0" departPos="5.10" departSpeed="0.00" departDelay="0.00" arrival="218.00" arrivalLane="51i_0" arrivalPos="10.00" arrivalSpeed="10.36" duration="147.00" routeLength="996.93" waitingTime="40.00" waitingCount="1" stopTime="0.00" timeLoss="64.94" rerouteNo="0" devices="tripinfo_NW_0" vType="cars" speedFactor="0.88" vaporized=""/>
    <tripinfo id="NS_1" depart="91.00" departLane="54o_0" departPos="5.10" departSpeed="0.00" departDelay="0.00" arrival="218.00" arrivalLane="53i_1" arrivalPos="10.00" arrivalSpeed="11.57" duration="127.00" routeLength="1015.18" waitingTime="20.00" waitingCount="2" stopTime="0.00" timeLoss="52.93" rerouteNo="0" devices="tripinfo_NS_1" vType="cars" speedFactor="1.04" vaporized=""/>
    <tripinfo id="NS_3" depart="97.00" departLane="54o_0" departPos="5.10" departSpeed="0.00" departDelay="3.00" arrival="218.00" arrivalLane="53i_0" arrivalPos="10.00" arrivalSpeed="12.62" duration="121.00" routeLength="1015.18" waitingTime="17.00" waitingCount="1" stopTime="0.00" timeLoss="48.39" rerouteNo="0" devices="tripinfo_NS_3" vType="cars" speedFactor="1.09" vaporized=""/>
    <tripinfo id="SN_2" depart="48.00" departLane="53o_0" departPos="5.10" departSpeed="0.00" departDelay="1.00" arrival="219.00" arrivalLane="54i_1" arrivalPos="10.00" arrivalSpeed="11.22" duration="171.00" routeLength="1015.18" waitingTime="67.00" waitingCount="2" stopTime="0.00" timeLoss="94.26" rerouteNo="0" devices="tripinfo_SN_2" vType="cars" speedFactor="0.97" vaporized=""/>
    <tripinfo id="SN_6" depart="135.00" departLane="53o_0" departPos="5.10" departSpeed="0.00" departDelay="1.00" arrival="221.00" arrivalLane="54i_2" arrivalPos="10.00" arrivalSpeed="13.46" duration="86.00" routeLength="1015.18" waitingTime="0.00" waitingCount="0" stopTime="0.00" timeLoss="16.16" rerouteNo="0" devices="tripinfo_SN_6" vType="cars" speedFactor="1.15" vaporized=""/>
    <tripinfo id="SN_5" depart="130.00" departLane="53o_0" departPos="5.10" departSpeed="0.00" departDelay="0.00" arrival="222.00" arrivalLane="54i_0" arrivalPos="10.00" arrivalSpeed="10.80" duration="92.00" routeLength="1015.18" waitingTime="0.00" waitingCount="0" stopTime="0.00" timeLoss="14.97" rerouteNo="0" devices="tripinfo_SN_5" vType="cars" speedFactor="0.98" vaporized=""/>
    <tripinfo id="SN_4" depart="117.00" departLane="53o_0" departPos="5.10" departSpeed="0.00" departDelay="0.00" arrival="223.00" arrivalLane="54i_0" arrivalPos="10.00" arrivalSpeed="11.00" duration="106.00" routeLength="1015.18" waitingTime="0.00" waitingCount="0" stopTime="0.00" timeLoss="26.99" rerouteNo="0" devices="tripinfo_SN_4" vType="cars" speedFactor="0.93" vaporized=""/>
    <tripinfo id="EN_2" depart="114.00" departLane="52o_0" departPos="5.10" departSpeed="0.00" departDelay="0.00" arrival="243.00" arrivalLane="54i_0" arrivalPos="10.00" arrivalSpeed="12.66" duration="129.00" routeLength="996.93" waitingTime="32.00" waitingCount="1" stopTime="0.00" timeLoss="58.09" rerouteNo="0" devices="tripinfo_EN_2" vType="cars" speedFactor="1.12" vaporized=""/>
    <tripinfo id="EN_3" depart="149.00" departLane="52o_0" departPos="5.10" departSpeed="0.00" departDelay="0.00" arrival="247.00" arrivalLane="54i_0" arrivalPos="10.00" arrivalSpeed="11.99" duration="98.00" routeLength="996.93" waitingTime="0.00" waitingCount="0" stopTime="0.00" timeLoss="24.29" rerouteNo="0" devices="tripinfo_EN_3" vType="cars" speedFactor="1.05" vaporized=""/>
    <tripinfo id="EW_5" depart="122.00" departLane="52o_0" departPos="5.10" departSpeed="0.00" departDelay="0.00" arrival="249.00" arrivalLane="51i_0" arrivalPos="10.00" arrivalSpeed="11.40" duration="127.00" routeLength="1015.18" waitingTime="23.00" waitingCount="1" stopTime="0.00" timeLoss="49.32" rerouteNo="0" devices="tripinfo_EW_5" vType="cars" speedFactor="0.97" vaporized=""/>
    <tripinfo id="WE_5" depart="140.00" departLane="51o_0" departPos="5.10" departSpeed="0.00" departDelay="0.00" arrival="249.00" arrivalLane="52i_0" arrivalPos="10.00" arrivalSpeed="11.23" duration="109.00" routeLength="1015.18" waitingTime="7.00" waitingCount="1" stopTime="0.00" timeLoss="31.90" rerouteNo="0" devices="tripinfo_WE_5" vType="cars" speedFactor="0.98" vaporized=""/>
    <tripinfo id="WN_5" depart="118.00" departLane="51o_2" departPos="5.10" departSpeed="0.00" departDelay="2.00" arrival="258.00" arrivalLane="54i_0" arrivalPos="10.00" arrivalSpeed="11.23" duration="140.00" routeLength="1015.04" waitingTime="27.00" waitingCount="1" stopTime="0.00" timeLoss="62.83" rerouteNo="0" devices="tripinfo_WN_5" vType="cars" speedFactor="0.98" vaporized=""/>
    <tripinfo id="EW_7" depart="172.00" departLane="52o_0" departPos="5.10" departSpeed="0.00" departDelay="0.00" arrival="261.00" arrivalLane="51i_1" arrivalPos="10.00" arrivalSpeed="12.98" duration="89.00" routeLength="1015.18" waitingTime="0.00" waitingCount="0" stopTime="0.00" timeLoss="17.36" rerouteNo="0" devices="tripinfo_EW_7" vType="cars" speedFactor="1.11" vaporized=""/>
    <tripinfo id="WE_7" depart="171.00" departLane="51o_0" departPos="5.10" departSpeed="0.00" departDelay="0.00" arrival="262.00" arrivalLane="52i_0" arrivalPos="10.00" arrivalSpeed="11.45" duration="91.00" routeLength="1015.18" waitingTime="0.00" waitingCount="0" stopTime="0.00" timeLoss="15.52" rerouteNo="0" devices="tripinfo_WE_7" vType="cars" speedFactor="1.02" vaporized=""/>
    <tripinfo id="WN_4" depart="113.00" departLane="51o_2" departPos="5.10" departSpeed="0.00" departDelay="0.00" arrival="263.00" arrivalLane="54i_0" arrivalPos="10.00" arrivalSpeed="9.65" duration="150.00" routeLength="1015.04" waitingTime="29.00" waitingCount="2" stopTime="0.00" timeLoss="63.56" rerouteNo="0" devices="tripinfo_WN_4" vType="cars" speedFactor="0.83" vaporized=""/>
    <tripinfo id="SW_1" depart="160.00" departLane="53o_2" departPos="5.10" departSpeed="0.00" departDelay="0.00" arrival="263.00" arrivalLane="51i_0" arrivalPos="10.00" arrivalSpeed="12.07" duration="103.00" routeLength="1015.04" waitingTime="2.00" waitingCount="1" stopTime="0.00" timeLoss="27.88" rerouteNo="0" devices="tripinfo_SW_1" vType="cars" speedFactor="1.05" vaporized=""/>
    <tripinfo id="EW_8" depart="177.00" departLane="52o_0" departPos="5.10" departSpeed="0.00" departDelay="1.00" arrival="268.00" arrivalLane="51i_1" arrivalPos="10.00" arrivalSpeed="10.57" duration="91.00" routeLength="1015.18" waitingTime="0.00" waitingCount="0" stopTime="0.00" timeLoss="14.18" rerouteNo="0" devices="tripinfo_EW_8" vType="cars" speedFactor="0.98" vaporized=""/>
    <tripinfo id="EW_6" depart="157.00" departLane="52o_0" departPos="5.10" departSpeed="0.00" departDelay="0.00" arrival="269.00" arrivalLane="51i_0" arrivalPos="10.00" arrivalSpeed="11.49" duration="112.00" routeLength="1015.18" waitingTime="9.00" waitingCount="1" stopTime="0.00" timeLoss="36.05" rerouteNo="0" devices="tripinfo_EW_6" vType="cars" speedFactor="0.99" vaporized=""/>
    <tripinfo id="EW_9" depart="180.00" departLane="52o_1" departPos="5.10" departSpeed="0.00" departDelay="0.00" arrival="274.00" arrivalLane="51i_0" arrivalPos="10.00" arrivalSpeed="11.29" duration="94.00" routeLength="1015.18" waitingTime="0.00" waitingCount="0" stopTime="0.00" timeLoss="16.25" rerouteNo="0" devices="tripinfo_EW_9" vType="cars" speedFactor="0.97" vaporized=""/>
    <tripinfo id="WE_6" depart="161.00" departLane="51o_0" departPos="5.10" departSpeed="0.00" departDelay="0.00" arrival="275.00" arrivalLane="52i_0" arrivalPos="10.00" arrivalSpeed="10.10" duration="114.00" routeLength="1015.18" waitingTime="4.00" waitingCount="1" stopTime="0.00" timeLoss="30.95" rerouteNo="0" devices="tripinfo_WE_6" vType="cars" speedFactor="0.87" vaporized=""/>
    <tripinfo id="ES_1" depart="172.00" departLane="52o_2" departPos="5.10" departSpeed="0.00" departDelay="0.00" arrival="283.00" arrivalLane="53i_0" arrivalPos="10.00" arrivalSpeed="9.67" duration="111.00" routeLength="1015.04" waitingTime="0.00" waitingCount="0" stopTime="0.00" timeLoss="24.69" rerouteNo="0" devices="tripinfo_ES_1" vType="cars" speedFactor="0.84" vaporized=""/>
    <tripinfo id="WN_6" depart="147.00" departLane="51o_2" departPos="5.10" departSpeed="0.00" departDelay="0.00" arrival="288.00" arrivalLane="54i_0" arrivalPos="10.00" arrivalSpeed="10.72" duration="141.00" routeLength="1015.04" waitingTime="17.00" waitingCount="3" stopTime="0.00" timeLoss="61.12" rerouteNo="0" devices="tripinfo_WN_6" vType="cars" speedFactor="0.93" vaporized=""/>
    <tripinfo id="WE_8" depart="197.00" departLane="51o_0" departPos="5.10" departSpeed="0.00" departDelay="0.00" arrival="294.00" arrivalLane="52i_0" arrivalPos="10.00" arrivalSpeed="10.98" duration="97.00" routeLength="1015.18" waitingTime="0.00" waitingCount="0" stopTime="0.00" timeLoss="19.69" rerouteNo="0" devices="tripinfo_WE_8" vType="cars" speedFactor="0.97" vaporized=""/>
    <tripinfo id="EW_11" depart="199.00" departLane="52o_0" departPos="5.10" departSpeed="0.00" departDelay="0.00" arrival="294.00" arrivalLane="51i_0" arrivalPos="10.00" arrivalSpeed="10.92" duration="95.00" routeLength="1015.18" waitingTime="0.00" waitingCount="0" stopTime="0.00" timeLoss="16.02" rerouteNo="0" devices="tripinfo_EW_11" vType="cars" speedFactor="0.94" vaporized=""/>
    <tripinfo id="EN_4" depart="204.00" departLane="52o_0" departPos="5.10" departSpeed="0.00" departDelay="0.00" arrival="296.00" arrivalLane="54i_0" arrivalPos="10.00" arrivalSpeed="11.89" duration="92.00" routeLength="996.93" waitingTime="0.00" waitingCount="0" stopTime="0.00" timeLoss="17.62" rerouteNo="0" devices="tripinfo_EN_4" vType="cars" speedFactor="1.02" vaporized=""/>
    <tripinfo id="EW_10" depart="189.00" departLane="52o_0" departPos="5.10" departSpeed="0.00" departDelay="0.00" arrival="298.00" arrivalLane="51i_0" arrivalPos="10.00" arrivalSpeed="11.55" duration="109.00" routeLength="1015.18" waitingTime="7.00" waitingCount="1" stopTime="0.00" timeLoss="32.99" rerouteNo="0" devices="tripinfo_EW_10" vType="cars" speedFactor="0.99" vaporized=""/>
    <tripinfo id="WE_9" depart="206.00" departLane="51o_0" departPos="5.10" departSpeed="0.00" departDelay="0.00" arrival="298.00" arrivalLane="52i_0" arrivalPos="10.00" arrivalSpeed="11.47" duration="92.00" routeLength="1015.18" waitingTime="0.00" waitingCount="0" stopTime="0.00" timeLoss="15.02" rerouteNo="0" devices="tripinfo_WE_9" vType="cars" speedFactor="0.99" vaporized=""/>
    <tripinfo id="WN_7" depart="197.00" departLane="51o_2" departPos="5.10" departSpeed="0.00" departDelay="0.00" arrival="307.00" arrivalLane="54i_0" arrivalPos="10.00" arrivalSpeed="10.93" duration="110.00" routeLength="1015.04" waitingTime="6.00" waitingCount="1" stopTime="0.00" timeLoss="31.48" rerouteNo="0" devices="tripinfo_WN_7" vType="cars" speedFactor="0.97" vaporized=""/>
    <tripinfo id="NE_3" depart="172.00" departLane="54o_2" departPos="5.10" departSpeed="0.00" departDelay="0.00" arrival="308.00" arrivalLane="52i_0" arrivalPos="10.00" arrivalSpeed="12.03" duration="136.00" routeLength="1015.04" waitingTime="33.00" waitingCount="1" stopTime="0.00" timeLoss="59.85" rerouteNo="0" devices="tripinfo_NE_3" vType="cars" speedFactor="1.02" vaporized=""/>
    <tripinfo id="EN_5" depart="210.00" departLane="52o_0" departPos="5.10" departSpeed="0.00" departDelay="2.00" arrival="318.00" arrivalLane="54i_0" arrivalPos="10.00" arrivalSpeed="11.42" duration="108.00" routeLength="996.93" waitingTime="3.00" waitingCount="1" stopTime="0.00" timeLoss="31.46" rerouteNo="0" devices="tripinfo_EN_5" vType="cars" speedFactor="0.98" vaporized=""/>
    <tripinfo id="WN_8" depart="208.00" departLane="51o_2" departPos="5.10" departSpeed="0.00" departDelay="0.00" arrival="321.00" arrivalLane="54i_1" arrivalPos="10.00" arrivalSpeed="10.92" duration="113.00" routeLength="1015.04" waitingTime="9.00" waitingCount="1" stopTime="0.00" timeLoss="33.51" rerouteNo="0" devices="tripinfo_WN_8" vType="cars" speedFactor="0.95" vaporized=""/>
    <tripinfo id="WN_9" depart="222.00" departLane="51o_2" departPos="5.10" departSpeed="0.00" departDelay="0.00" arrival="321.00" arrivalLane="54i_0" arrivalPos="10.00" arrivalSpeed="11.68" duration="99.00" routeLength="1015.04" waitingTime="0.00" waitingCount="0" stopTime="0.00" timeLoss="21.92" rerouteNo="0" devices="tripinfo_WN_9" vType="cars" speedFactor="1.00" vaporized=""/>
    <tripinfo id="NW_3" depart="166.00" departLane="54o_0" departPos="5.10" departSpeed="0.00" departDelay="0.00" arrival="325.00" arrivalLane="51i_0" arrivalPos="10.00" arrivalSpeed="12.63" duration="159.00" routeLength="996.93" waitingTime="60.00" waitingCount="1" stopTime="0.00" timeLoss="88.41" rerouteNo="0" devices="tripinfo_NW_3" vType="cars" speedFactor="1.12" vaporized=""/>
    <tripinfo id="NS_6" depart="206.00" departLane="54o_0" departPos="5.10" departSpeed="0.00" departDelay="0.00" arrival="326.00" arrivalLane="53i_0" arrivalPos="10.00" arrivalSpeed="12.14" duration="120.00" routeLength="1015.18" waitingTime="21.00" waitingCount="1" stopTime="0.00" timeLoss="48.43" rerouteNo="0" devices="tripinfo_NS_6" vType="cars" speedFactor="1.10" vaporized=""/>
    <tripinfo id="SE_2" depart="209.00" departLane="53o_0" departPos="5.10" departSpeed="0.00" departDelay="0.00" arrival="326.00" arrivalLane="52i_1" arrivalPos="10.00" arrivalSpeed="12.10" duration="117.00" routeLength="996.93" waitingTime="17.00" waitingCount="1" stopTime="0.00" timeLoss="43.86" rerouteNo="0" devices="tripinfo_SE_2" vType="cars" speedFactor="1.05" vaporized=""/>
    <tripinfo id="SN_8" depart="174.00" departLane="53o_0" departPos="5.10" departSpeed="0.00" departDelay="0.00" arrival="327.00" arrivalLane="54i_0" arrivalPos="10.00" arrivalSpeed="11.97" duration="153.00" routeLength="1015.18" waitingTime="51.00" waitingCount="1" stopTime="0.00" timeLoss="77.85" rerouteNo="0" devices="tripinfo_SN_8" vType="cars" speedFactor="1.02" vaporized=""/>
    <tripinfo id="WE_10" depart="214.00" departLane="51o_0" departPos="5.10" departSpeed="0.00" departDelay="0.00" arrival="329.00" arrivalLane="52i_0" arrivalPos="10.00" arrivalSpeed="9.37" duration="115.00" routeLength="1015.18" waitingTime="1.00" waitingCount="1" stopTime="0.00" timeLoss="24.15" rerouteNo="0" devices="tripinfo_WE_10" vType="cars" speedFactor="0.79" vaporized=""/>
    <tripinfo id="NS_4" depart="152.00" departLane="54o_0" departPos="5.10" departSpeed="0.00" departDelay="0.00" arrival="330.00" arrivalLane="53i_0" arrivalPos="10.00" arrivalSpeed="10.79" duration="178.00" routeLength="1015.18" waitingTime="73.00" waitingCount="1" stopTime="0.00" timeLoss="100.15" rerouteNo="0" devices="tripinfo_NS_4" vType="cars" speedFactor="0.96" vaporized=""/>
    <tripinfo id="SN_7" depart="157.00" departLane="53o_0" departPos="5.10" departSpeed="0.00" departDelay="0.00" arrival="331.00" arrivalLane="54i_0" arrivalPos="10.00" arrivalSpeed="10.93" duration="174.00" routeLength="1015.18" waitingTime="69.00" waitingCount="1" stopTime="0.00" timeLoss="94.18" rerouteNo="0" devices="tripinfo_SN_7" vType="cars" speedFactor="0.93" vaporized=""/>
    <tripinfo id="NE_4" depart="223.00" departLane="54o_2" departPos="5.10" departSpeed="0.00" departDelay="0.00" arrival="333.00" arrivalLane="52i_1" arrivalPos="10.00" arrivalSpeed="12.31" duration="110.00" routeLength="1015.04" waitingTime="5.00" waitingCount="2" stopTime="0.00" timeLoss="35.93" rerouteNo="0" devices="tripinfo_NE_4" vType="cars" speedFactor="1.05" vaporized=""/>
    <tripinfo id="EN_6" depart="241.00" departLane="52o_0" departPos="5.10" departSpeed="0.00" departDelay="4.00" arrival="333.00" arrivalLane="54i_0" arrivalPos="10.00" arrivalSpeed="12.35" duration="92.00" routeLength="996.93" waitingTime="0.00" waitingCount="0" stopTime="0.00" timeLoss="18.55" rerouteNo="0" devices="tripinfo_EN_6" vType="cars" speedFactor="1.06" vaporized=""/>
    <tripinfo id="WE_11" depart="238.00" departLane="51o_0" departPos="5.10" departSpeed="0.00" departDelay="0.00" arrival="336.00" arrivalLane="52i_0" arrivalPos="10.00" arrivalSpeed="10.73" duration="98.00" routeLength="1015.18" waitingTime="0.00" waitingCount="0" stopTime="0.00" timeLoss="18.62" rerouteNo="0" devices="tripinfo_WE_11" vType="cars" speedFactor="0.93" vaporized=""/>
    <tripinfo id="NS_5" depart="159.00" departLane="54o_0" departPos="5.10" departSpeed="0.00" departDelay="0.00" arrival="338.00" arrivalLane="53i_0" arrivalPos="10.00" arrivalSpeed="9.02" duration="179.00" routeLength="1015.18" waitingTime="64.00" waitingCount="1" stopTime="0.00" timeLoss="90.10" rerouteNo="0" devices="tripinfo_NS_5" vType="cars" speedFactor="0.80" vaporized=""/>
    <tripinfo id="EW_12" depart="236.00" departLane="52o_0" departPos="5.10" departSpeed="0.00" departDelay="0.00" arrival="339.00" arrivalLane="51i_0" arrivalPos="10.00" arrivalSpeed="10.39" duration="103.00" routeLength="1015.18" waitingTime="0.00" waitingCount="0" stopTime="0.00" timeLoss="23.12" rerouteNo="0" devices="tripinfo_EW_12" vType="cars" speedFactor="0.92" vaporized=""/>
    <tripinfo id="EW_13" depart="246.00" departLane="52o_0" departPos="5.10" departSpeed="0.00" departDelay="0.00" arrival="340.00" arrivalLane="51i_1" arrivalPos="10.00" arrivalSpeed="11.54" duration="94.00" routeLength="1015.18" waitingTime="0.00" waitingCount="0" stopTime="0.00" timeLoss="16.81" rerouteNo="0" devices="tripinfo_EW_13" vType="cars" speedFactor="0.98" vaporized=""/>