<?xml version="1.0" encoding="UTF-8"?>

<!-- generated on 2026-04-09T23:05:49.802382+05:30 by Eclipse SUMO sumo 1.25.0
<sumoConfiguration xmlns:xsi="http://www.w3.org/2001/XMLSchema-instance" xsi:noNamespaceSchemaLocation="http://sumo.dlr.de/xsd/sumoConfiguration.xsd">

    <input>
        <net-file value="./env_iiser/new/map_actuated.net.xml"/>
        <route-files value="env_iiser/new/vtypes.add.xml,env_iiser/new/cars.rou.xml,env_iiser/new/buses.rou.xml,env_iiser/new/bikes.rou.xml,env_iiser/new/ambulance.rou.xml"/>
    </input>

    <output>
        <tripinfo-output value="results/actuated_tripinfo.xml"/>
    </output>

    <time>
        <step-length value="5"/>
    </time>

    <report>
        <no-warnings value="true"/>
    </report>

    <traci_server>
        <remote-port value="39145"/>
    </traci_server>

</sumoConfiguration>
-->

<tripinfos xmlns:xsi="http://www.w3.org/2001/XMLSchema-instance" xsi:noNamespaceSchemaLocation="http://sumo.dlr.de/xsd/tripinfo_file.xsd">
    <tripinfo id="car1" depart="20.00" departLane="-469966399#5_0" departPos="5.10" departSpeed="0.00" departDelay="0.00" arrival="75.00" arrivalLane="-469966399#3_0" arrivalPos="54.63" arrivalSpeed="4.35" duration="55.00" routeLength="164.17" waitingTime="5.00" waitingCount="1" stopTime="0.00" timeLoss="21.12" rerouteNo="1" devices="tripinfo_car1 routing_car1" vType="my_car" speedFactor="0.94" vaporized=""/>
    <tripinfo id="bike1" depart="50.00" departLane="-469966399#5_0" departPos="1.70" departSpeed="0.00" departDelay="0.00" arrival="90.00" arrivalLane="-469966399#3_0" arrivalPos="54.63" arrivalSpeed="5.09" duration="40.00" routeLength="167.57" waitingTime="0.00" waitingCount="0" stopTime="0.00" timeLoss="8.84" rerouteNo="1" devices="tripinfo_bike1 routing_bike1" vType="my_bike" speedFactor="1.08" vaporized=""/>
    <tripinfo id="emergency2" depart="120.00" departLane="1445927129_0" departPos="6.60" departSpeed="0.00" departDelay="0.00" arrival="205.00" arrivalLane="1445927128_0" arrivalPos="12.02" arrivalSpeed="4.37" duration="85.00" routeLength="50.80" waitingTime="60.00" waitingCount="1" stopTime="0.00" timeLoss="72.69" rerouteNo="1" devices="tripinfo_emergency2 routing_emergency2" vType="my_emergency" speedFactor="1.00" vaporized=""/>
    <tripinfo id="car6" depart="120.00" departLane="-1445926303#0_0" departPos="5.10" departSpeed="0.00" departDelay="0.00" arrival="210.00" arrivalLane="-469966399#12_0" arrivalPos="51.54" arrivalSpeed="1.54" duration="90.00" routeLength="192.20" waitingTime="20.00" waitingCount="2" stopTime="0.00" timeLoss="57.00" rerouteNo="1" devices="tripinfo_car6 routing_car6" vType="my_car" speedFactor="0.94" vaporized=""/>
    <tripinfo id="car8" depart="160.00" departLane="-469966399#12_0" departPos="5.10" departSpeed="0.00" departDelay="0.00" arrival="235.00" arrivalLane="1445926308#0_0" arrivalPos="36.96" arrivalSpeed="8.74" duration="75.00" routeLength="310.14" waitingTime="15.00" waitingCount="2" stopTime="0.00" timeLoss="48.38" rerouteNo="1" devices="tripinfo_car8 routing_car8" vType="my_car" speedFactor="1.09" vaporized=""/>
    <tripinfo id="car5" depart="100.00" departLane="-469966399#12_0" departPos="5.10" departSpeed="0.00" departDelay="0.00" arrival="240.00" arrivalLane="1445926303#3_0" arrivalPos="15.38" arrivalSpeed="7.06" duration="140.00" routeLength="410.37" waitingTime="70.00" waitingCount="2" stopTime="0.00" timeLoss="99.15" rerouteNo="1" devices="tripinfo_car5 routing_car5" vType="my_car" speedFactor="0.89" vaporized=""/>
    <tripinfo id="bike2" depart="100.00" departLane="469966399#3_0" departPos="1.70" departSpeed="0.00" departDelay="0.00" arrival="255.00" arrivalLane="469966399#1_0" arrivalPos="144.22" arrivalSpeed="2.83" duration="155.00" routeLength="492.33" waitingTime="15.00" waitingCount="3" stopTime="0.00" timeLoss="60.58" rerouteNo="1" devices="tripinfo_bike2 routing_bike2" vType="my_bike" speedFactor="0.93" vaporized=""/>
    <tripinfo id="bus1" depart="100.00" departLane="-1445927128_0" departPos="12.02" departSpeed="0.00" departDelay="20.00" arrival="285.00" arrivalLane="-469966399#5_0" arrivalPos="47.27" arrivalSpeed="3.56" duration="185.00" routeLength="420.13" waitingTime="60.00" waitingCount="3" stopTime="0.00" timeLoss="118.93" rerouteNo="1" devices="tripinfo_bus1 routing_bus1" vType="my_bus" speedFactor="1.00" vaporized=""/>
    <tripinfo id="car2" depart="40.00" departLane="469966399#3_0" departPos="5.10" departSpeed="0.00" departDelay="0.00" arrival="285.00" arrivalLane="469966399#1_0" arrivalPos="144.22" arrivalSpeed="1.14" duration="245.00" routeLength="505.06" waitingTime="95.00" waitingCount="12" stopTime="0.00" timeLoss="172.72" rerouteNo="1" devices="tripinfo_car2 routing_car2" vType="my_car" speedFactor="1.03" vaporized=""/>
    <tripinfo id="bus2" depart="290.00" departLane="1445927129_0" departPos="12.10" departSpeed="0.00" departDelay="130.00" arrival="310.00" arrivalLane="1445927128_0" arrivalPos="12.02" arrivalSpeed="4.30" duration="20.00" routeLength="45.30" waitingTime="0.00" waitingCount="0" stopTime="0.00" timeLoss="9.06" rerouteNo="1" devices="tripinfo_bus2 routing_bus2" vType="my_bus" speedFactor="1.00" vaporized=""/>
    <tripinfo id="emergency1" depart="60.00" departLane="-1445927128_0" departPos="6.60" departSpeed="0.00" departDelay="0.00" arrival="315.00" arrivalLane="-469966399#5_0" arrivalPos="47.27" arrivalSpeed="4.20" duration="255.00" routeLength="429.50" waitingTime="95.00" waitingCount="9" stopTime="0.00" timeLoss="183.33" rerouteNo="1" devices="tripinfo_emergency1 routing_emergency1" vType="my_emergency" speedFactor="1.00" vaporized=""/>
    <tripinfo id="bike0" depart="5.00" departLane="1445927127_0" departPos="1.70" departSpeed="0.00" departDelay="5.00" arrival="335.00" arrivalLane="-1445926303#1_0" arrivalPos="16.77" arrivalSpeed="3.84" duration="330.00" routeLength="759.87" waitingTime="110.00" waitingCount="10" stopTime="0.00" timeLoss="200.20" rerouteNo="1" devices="tripinfo_bike0 routing_bike0" vType="my_bike" speedFactor="1.01" vaporized=""/>
    <tripinfo id="emergency5" depart="300.00" departLane="-1445926308#0_0" departPos="6.60" departSpeed="0.00" departDelay="0.00" arrival="345.00" arrivalLane="1445926303#4_0" arrivalPos="17.00" arrivalSpeed="8.89" duration="45.00" routeLength="219.48" waitingTime="10.00" waitingCount="1" stopTime="0.00" timeLoss="26.37" rerouteNo="1" devices="tripinfo_emergency5 routing_emergency5" vType="my_emergency" speedFactor="1.00" vaporized=""/>
    <tripinfo id="car13" depart="260.00" departLane="-1445926305#1_0" departPos="5.10" departSpeed="0.00" departDelay="0.00" arrival="360.00" arrivalLane="-1445926306#1_0" arrivalPos="17.52" arrivalSpeed="12.91" duration="100.00" routeLength="286.82" waitingTime="40.00" waitingCount="3" stopTime="0.00" timeLoss="79.65" rerouteNo="1" devices="tripinfo_car13 routing_car13" vType="my_car" speedFactor="1.16" vaporized=""/>
    <tripinfo id="bike5" depart="250.00" departLane="-469966399#12_0" departPos="1.70" departSpeed="0.00" departDelay="0.00" arrival="395.00" arrivalLane="1445926303#3_0" arrivalPos="15.38" arrivalSpeed="3.15" duration="145.00" routeLength="413.77" waitingTime="20.00" waitingCount="2" stopTime="0.00" timeLoss="64.87" rerouteNo="1" devices="tripinfo_bike5 routing_bike5" vType="my_bike" speedFactor="0.94" vaporized=""/>
    <tripinfo id="car0" depart="0.00" departLane="1445927127_0" departPos="5.10" departSpeed="0.00" departDelay="0.00" arrival="435.00" arrivalLane="-1445926303#1_0" arrivalPos="16.77" arrivalSpeed="11.84" duration="435.00" routeLength="759.17" waitingTime="165.00" waitingCount="18" stopTime="0.00" timeLoss="311.41" rerouteNo="1" devices="tripinfo_car0 routing_car0" vType="my_car" speedFactor="1.06" vaporized=""/>
    <tripinfo id="bike6" depart="300.00" departLane="-1445926303#0_0" departPos="1.70" departSpeed="0.00" departDelay="0.00" arrival="435.00" arrivalLane="-469966399#12_0" arrivalPos="51.54" arrivalSpeed="5.04" duration="135.00" routeLength="195.60" waitingTime="60.00" waitingCount="5" stopTime="0.00" timeLoss="96.78" rerouteNo="1" devices="tripinfo_bike6 routing_bike6" vType="my_bike" speedFactor="1.18" vaporized=""/>
    <tripinfo id="car10" depart="200.00" departLane="469966400#0_0" departPos="5.10" departSpeed="0.00" departDelay="0.00" arrival="455.00" arrivalLane="469966399#11_0" arrivalPos="18.52" arrivalSpeed="3.79" duration="255.00" routeLength="502.02" waitingTime="110.00" waitingCount="8" stopTime="0.00" timeLoss="176.91" rerouteNo="1" devices="tripinfo_car10 routing_car10" vType="my_car" speedFactor="1.05" vaporized=""/>
    <tripinfo id="bus5" depart="400.00" departLane="-1445926308#0_0" departPos="12.10" departSpeed="0.00" departDelay="0.00" arrival="455.00" arrivalLane="1445926303#4_0" arrivalPos="17.00" arrivalSpeed="11.25" duration="55.00" routeLength="213.98" waitingTime="15.00" waitingCount="2" stopTime="0.00" timeLoss="38.04" rerouteNo="1" devices="tripinfo_bus5 routing_bus5" vType="my_bus" speedFactor="1.00" vaporized=""/>
    <tripinfo id="emergency7" depart="420.00" departLane="1445926305#0_0" departPos="6.60" departSpeed="0.00" departDelay="0.00" arrival="465.00" arrivalLane="1445926303#4_0" arrivalPos="17.00" arrivalSpeed="12.90" duration="45.00" routeLength="298.25" waitingTime="5.00" waitingCount="1" stopTime="0.00" timeLoss="19.70" rerouteNo="1" devices="tripinfo_emergency7 routing_emergency7" vType="my_emergency" speedFactor="1.00" vaporized=""/>
    <tripinfo id="bus0" depart="0.00" departLane="1445926303#3_0" departPos="12.10" departSpeed="0.00" departDelay="0.00" arrival="470.00" arrivalLane="-1018228073#0_0" arrivalPos="2039.58" arrivalSpeed="13.34" duration="470.00" routeLength="3276.93" waitingTime="25.00" waitingCount="5" stopTime="0.00" timeLoss="154.07" rerouteNo="1" devices="tripinfo_bus0 routing_bus0" vType="my_bus" speedFactor="1.00" vaporized=""/>
    <tripinfo id="bus3" depart="240.00" departLane="475071113#5_0" departPos="5.00" departSpeed="0.00" departDelay="0.00" arrival="480.00" arrivalLane="-1445926305#1_0" arrivalPos="83.00" arrivalSpeed="12.45" duration="240.00" routeLength="1016.37" waitingTime="30.00" waitingCount="5" stopTime="0.00" timeLoss="113.64" rerouteNo="1" devices="tripinfo_bus3 routing_bus3" vType="my_bus" speedFactor="1.00" vaporized=""/>
    <tripinfo id="bike8" depart="400.00" departLane="-469966399#12_0" departPos="1.70" departSpeed="0.00" departDelay="0.00" arrival="490.00" arrivalLane="1445926308#0_0" arrivalPos="36.96" arrivalSpeed="4.78" duration="90.00" routeLength="326.64" waitingTime="0.00" waitingCount="0" stopTime="0.00" timeLoss="29.52" rerouteNo="1" devices="tripinfo_bike8 routing_bike8" vType="my_bike" speedFactor="1.01" vaporized=""/>
    <tripinfo id="car11" depart="220.00" departLane="-469966400#2_0" departPos="5.10" departSpeed="0.00" departDelay="0.00" arrival="530.00" arrivalLane="-469966399#0_0" arrivalPos="42.26" arrivalSpeed="2.34" duration="310.00" routeLength="877.12" waitingTime="45.00" waitingCount="5" stopTime="0.00" timeLoss="185.08" rerouteNo="1" devices="tripinfo_car11 routing_car11" vType="my_car" speedFactor="1.12" vaporized=""/>
    <tripinfo id="bike3" depart="150.00" departLane="475071113#4_0" departPos="1.70" departSpeed="0.00" departDelay="0.00" arrival="530.00" arrivalLane="-1445926306#0_0" arrivalPos="42.86" arrivalSpeed="3.16" duration="380.00" routeLength="844.24" waitingTime="55.00" waitingCount="8" stopTime="0.00" timeLoss="205.66" rerouteNo="1" devices="tripinfo_bike3 routing_bike3" vType="my_bike" speedFactor="0.88" vaporized=""/>
    <tripinfo id="car20" depart="400.00" departLane="469966399#12_0" departPos="5.10" departSpeed="0.00" departDelay="0.00" arrival="555.00" arrivalLane="-1445926303#3_0" arrivalPos="14.47" arrivalSpeed="3.25" duration="155.00" routeLength="501.11" waitingTime="60.00" waitingCount="5" stopTime="0.00" timeLoss="102.76" rerouteNo="1" devices="tripinfo_car20 routing_car20" vType="my_car" speedFactor="0.92" vaporized=""/>
    <tripinfo id="emergency0" depart="5.00" departLane="1445926303#3_0" departPos="6.60" departSpeed="0.00" departDelay="5.00" arrival="620.00" arrivalLane="-1018228073#0_0" arrivalPos="2039.58" arrivalSpeed="16.59" duration="615.00" routeLength="3282.43" waitingTime="120.00" waitingCount="17" stopTime="0.00" timeLoss="341.07" rerouteNo="1" devices="tripinfo_emergency0 routing_emergency0" vType="my_emergency" speedFactor="1.00" vaporized=""/>
    <tripinfo id="bus7" depart="560.00" departLane="1445926305#0_0" departPos="12.10" departSpeed="0.00" departDelay="0.00" arrival="625.00" arrivalLane="1445926303#4_0" arrivalPos="17.00" arrivalSpeed="13.58" duration="65.00" routeLength="292.75" waitingTime="20.00" waitingCount="1" stopTime="0.00" timeLoss="39.70" rerouteNo="1" devices="tripinfo_bus7 routing_bus7" vType="my_bus" speedFactor="1.00" vaporized=""/>
    <tripinfo id="car15" depart="305.00" departLane="469966400#1_0" departPos="5.10" departSpeed="0.00" departDelay="5.00" arrival="640.00" arrivalLane="469966399#14_0" arrivalPos="308.45" arrivalSpeed="3.65" duration="335.00" routeLength="839.58" waitingTime="70.00" waitingCount="10" stopTime="0.00" timeLoss="197.57" rerouteNo="1" devices="tripinfo_car15 routing_car15" vType="my_car" speedFactor="1.01" vaporized=""/>
    <tripinfo id="bike7" depart="350.00" departLane="1445927129_0" departPos="1.70" departSpeed="0.00" departDelay="0.00" arrival="655.00" arrivalLane="1445926305#1_0" arrivalPos="77.34" arrivalSpeed="4.43" duration="305.00" routeLength="859.84" waitingTime="50.00" waitingCount="8" stopTime="0.00" timeLoss="142.24" rerouteNo="1" devices="tripinfo_bike7 routing_bike7" vType="my_bike" speedFactor="1.15" vaporized="teleport"/>
    <tripinfo id="car24" depart="480.00" departLane="1445927127_0" departPos="5.10" departSpeed="0.00" departDelay="0.00" arrival="660.00" arrivalLane="-475071113#2_0" arrivalPos="60.00" arrivalSpeed="3.91" duration="180.00" routeLength="205.03" waitingTime="90.00" waitingCount="9" stopTime="0.00" timeLoss="140.93" rerouteNo="1" devices="tripinfo_car24 routing_car24" vType="my_car" speedFactor="0.99" vaporized=""/>
    <tripinfo id="car23" depart="460.00" departLane="-1445926305#2_0" departPos="5.10" departSpeed="0.00" departDelay="0.00" arrival="700.00" arrivalLane="-469966399#8_0" arrivalPos="16.74" arrivalSpeed="4.42" duration="240.00" routeLength="579.76" waitingTime="85.00" waitingCount="5" stopTime="0.00" timeLoss="160.01" rerouteNo="1" devices="tripinfo_car23 routing_car23" vType="my_car" speedFactor="0.93" vaporized=""/>
    <tripinfo id="emergency3" depart="180.00" departLane="475071113#5_0" departPos="5.00" departSpeed="0.00" departDelay="0.00" arrival="705.00" arrivalLane="-1445926305#1_0" arrivalPos="83.00" arrivalSpeed="9.66" duration="525.00" routeLength="1032.50" waitingTime="200.00" waitingCount="19" stopTime="0.00" timeLoss="367.33" rerouteNo="1" devices="tripinfo_emergency3 routing_emergency3" vType="my_emergency" speedFactor="1.00" vaporized=""/>
    <tripinfo id="emergency4" depart="240.00" departLane="-469966399#9_0" departPos="6.60" departSpeed="0.00" departDelay="0.00" arrival="705.00" arrivalLane="-1018228073#0_0" arrivalPos="2039.58" arrivalSpeed="22.22" duration="465.00" routeLength="2950.82" waitingTime="95.00" waitingCount="11" stopTime="0.00" timeLoss="240.59" rerouteNo="1" devices="tripinfo_emergency4 routing_emergency4" vType="my_emergency" speedFactor="1.00" vaporized="teleport"/>
    <tripinfo id="bus4" depart="320.00" departLane="-469966399#9_0" departPos="12.10" departSpeed="0.00" departDelay="0.00" arrival="715.00" arrivalLane="-1018228073#0_0" arrivalPos="2039.58" arrivalSpeed="14.50" duration="395.00" routeLength="2923.58" waitingTime="20.00" waitingCount="3" stopTime="0.00" timeLoss="120.45" rerouteNo="1" devices="tripinfo_bus4 routing_bus4" vType="my_bus" speedFactor="1.00" vaporized=""/>
    <tripinfo id="car16" depart="320.00" departLane="1445926304_0" departPos="5.10" departSpeed="0.00" departDelay="0.00" arrival="720.00" arrivalLane="695769604_0" arrivalPos="81.42" arrivalSpeed="2.04" duration="400.00" routeLength="866.80" waitingTime="120.00" waitingCount="11" stopTime="0.00" timeLoss="246.36" rerouteNo="1" devices="tripinfo_car16 routing_car16" vType="my_car" speedFactor="0.97" vaporized=""/>
    <tripinfo id="car22" depart="440.00" departLane="-1445926305#0_0" departPos="5.10" departSpeed="0.00" departDelay="0.00" arrival="730.00" arrivalLane="-469966399#4_0" arrivalPos="43.80" arrivalSpeed="4.82" duration="290.00" routeLength="787.27" waitingTime="45.00" waitingCount="6" stopTime="0.00" timeLoss="170.26" rerouteNo="1" devices="tripinfo_car22 routing_car22" vType="my_car" speedFactor="1.13" vaporized=""/>
    <tripinfo id="bike13" depart="650.00" departLane="-1445926305#1_0" departPos="1.70" departSpeed="0.00" departDelay="0.00" arrival="735.00" arrivalLane="-1445926306#1_0" arrivalPos="17.52" arrivalSpeed="2.30" duration="85.00" routeLength="290.22" waitingTime="5.00" waitingCount="1" stopTime="0.00" timeLoss="26.55" rerouteNo="1" devices="tripinfo_bike13 routing_bike13" vType="my_bike" speedFactor="0.90" vaporized=""/>
    <tripinfo id="car9" depart="180.00" departLane="469966400#1_0" departPos="5.10" departSpeed="0.00" departDelay="0.00" arrival="740.00" arrivalLane="-1018228073#0_0" arrivalPos="2039.58" arrivalSpeed="21.74" duration="560.00" routeLength="2820.23" waitingTime="195.00" waitingCount="17" stopTime="0.00" timeLoss="348.94" rerouteNo="1" devices="tripinfo_car9 routing_car9" vType="my_car" speedFactor="1.03" vaporized=""/>
    <tripinfo id="emergency10" depart="600.00" departLane="469966399#4_0" departPos="6.60" departSpeed="0.00" departDelay="0.00" arrival="770.00" arrivalLane="1445927128_0" arrivalPos="12.02" arrivalSpeed="4.39" duration="170.00" routeLength="344.28" waitingTime="45.00" waitingCount="5" stopTime="0.00" timeLoss="112.55" rerouteNo="1" devices="tripinfo_emergency10 routing_emergency10" vType="my_emergency" speedFactor="1.00" vaporized=""/>
    <tripinfo id="emergency9" depart="540.00" departLane="469966399#4_0" departPos="6.60" departSpeed="0.00" departDelay="0.00" arrival="770.00" arrivalLane="-1018228073#0_0" arrivalPos="2039.58" arrivalSpeed="16.54" duration="230.00" routeLength="2479.15" waitingTime="75.00" waitingCount="9" stopTime="0.00" timeLoss="163.76" rerouteNo="1" devices="tripinfo_emergency9 routing_emergency9" vType="my_emergency" speedFactor="1.00" vaporized="teleport"/>
    <tripinfo id="car12" depart="240.00" departLane="695769603_0" departPos="5.10" departSpeed="0.00" departDelay="0.00" arrival="775.00" arrivalLane="-475071113#0_0" arrivalPos="0.20" arrivalSpeed="1.73" duration="535.00" routeLength="712.32" waitingTime="205.00" waitingCount="22" stopTime="0.00" timeLoss="412.35" rerouteNo="1" devices="tripinfo_car12 routing_car12" vType="my_car" speedFactor="0.99" vaporized=""/>
    <tripinfo id="bike11" depart="550.00" departLane="-469966400#2_0" departPos="1.70" departSpeed="0.00" departDelay="0.00" arrival="780.00" arrivalLane="-469966399#0_0" arrivalPos="42.26" arrivalSpeed="3.44" duration="230.00" routeLength="871.50" waitingTime="10.00" waitingCount="2" stopTime="0.00" timeLoss="71.04" rerouteNo="1" devices="tripinfo_bike11 routing_bike11" vType="my_bike" speedFactor="1.09" vaporized=""/>
    <tripinfo id="car4" depart="80.00" departLane="-475071113#5_0" departPos="5.00" departSpeed="0.00" departDelay="0.00" arrival="790.00" arrivalLane="-1445926303#2_0" arrivalPos="206.67" arrivalSpeed="12.31" duration="710.00" routeLength="1224.42" waitingTime="335.00" waitingCount="28" stopTime="0.00" timeLoss="546.75" rerouteNo="1" devices="tripinfo_car4 routing_car4" vType="my_car" speedFactor="1.05" vaporized=""/>
    <tripinfo id="car34" depart="680.00" departLane="-469966399#9_0" departPos="5.10" departSpeed="0.00" departDelay="0.00" arrival="805.00" arrivalLane="-469966399#7_0" arrivalPos="130.08" arrivalSpeed="3.66" duration="125.00" routeLength="265.30" waitingTime="35.00" waitingCount="6" stopTime="0.00" timeLoss="70.33" rerouteNo="1" devices="tripinfo_car34 routing_car34" vType="my_car" speedFactor="0.85" vaporized=""/>
    <tripinfo id="car3" depart="60.00" departLane="475071113#4_0" departPos="1.83" departSpeed="0.00" departDelay="0.00" arrival="820.00" arrivalLane="-1445926306#0_0" arrivalPos="42.86" arrivalSpeed="5.90" duration="760.00" routeLength="861.26" waitingTime="395.00" waitingCount="28" stopTime="0.00" timeLoss="585.65" rerouteNo="1" devices="tripinfo_car3 routing_car3" vType="my_car" speedFactor="0.83" vaporized=""/>
    <tripinfo id="car33" depart="660.00" departLane="-469966399#13_0" departPos="5.10" departSpeed="0.00" departDelay="0.00" arrival="820.00" arrivalLane="-1445926303#2_0" arrivalPos="206.67" arrivalSpeed="8.68" duration="160.00" routeLength="644.00" waitingTime="40.00" waitingCount="5" stopTime="0.00" timeLoss="106.18" rerouteNo="1" devices="tripinfo_car33 routing_car33" vType="my_car" speedFactor="1.04" vaporized=""/>
    <tripinfo id="car14" depart="280.00" departLane="475071113#0_0" departPos="0.20" departSpeed="0.00" departDelay="0.00" arrival="830.00" arrivalLane="1445926308#1_0" arrivalPos="180.48" arrivalSpeed="9.66" duration="550.00" routeLength="1077.97" waitingTime="210.00" waitingCount="19" stopTime="0.00" timeLoss="394.90" rerouteNo="1" devices="tripinfo_car14 routing_car14" vType="my_car" speedFactor="1.02" vaporized=""/>
    <tripinfo id="emergency8" depart="480.00" departLane="-1445926308#0_0" departPos="6.60" departSpeed="0.00" departDelay="0.00" arrival="835.00" arrivalLane="1445926307_0" arrivalPos="42.90" arrivalSpeed="0.92" duration="355.00" routeLength="404.51" waitingTime="190.00" waitingCount="14" stopTime="0.00" timeLoss="290.70" rerouteNo="1" devices="tripinfo_emergency8 routing_emergency8" vType="my_emergency" speedFactor="1.00" vaporized=""/>
    <tripinfo id="car17" depart="340.00" departLane="-475071113#0_0" departPos="0.20" departSpeed="0.00" departDelay="0.00" arrival="840.00" arrivalLane="1445926305#2_0" arrivalPos="106.06" arrivalSpeed="10.29" duration="500.00" routeLength="935.77" waitingTime="220.00" waitingCount="21" stopTime="0.00" timeLoss="360.61" rerouteNo="1" devices="tripinfo_car17 routing_car17" vType="my_car" speedFactor="0.89" vaporized=""/>
    <tripinfo id="bike12" depart="600.00" departLane="695769603_0" departPos="1.70" departSpeed="0.00" departDelay="0.00" arrival="840.00" arrivalLane="-475071113#0_0" arrivalPos="0.20" arrivalSpeed="1.58" duration="240.00" routeLength="723.73" waitingTime="20.00" waitingCount="3" stopTime="0.00" timeLoss="101.34" rerouteNo="1" devices="tripinfo_bike12 routing_bike12" vType="my_bike" speedFactor="1.00" vaporized=""/>
    <tripinfo id="bike4" depart="200.00" departLane="-475071113#5_0" departPos="1.70" departSpeed="0.00" departDelay="0.00" arrival="865.00" arrivalLane="-1445926303#2_0" arrivalPos="206.67" arrivalSpeed="4.53" duration="665.00" routeLength="1027.59" waitingTime="235.00" waitingCount="23" stopTime="0.00" timeLoss="423.87" rerouteNo="1" devices="tripinfo_bike4 routing_bike4" vType="my_bike" speedFactor="0.94" vaporized=""/>
    <tripinfo id="car32" depart="640.00" departLane="469966400#4_0" departPos="5.10" departSpeed="0.00" departDelay="0.00" arrival="890.00" arrivalLane="469966399#6_0" arrivalPos="135.33" arrivalSpeed="5.06" duration="250.00" routeLength="607.58" waitingTime="80.00" waitingCount="7" stopTime="0.00" timeLoss="164.87" rerouteNo="1" devices="tripinfo_car32 routing_car32" vType="my_car" speedFactor="1.09" vaporized=""/>
    <tripinfo id="car27" depart="540.00" departLane="1445927129_0" departPos="5.10" departSpeed="0.00" departDelay="0.00" arrival="900.00" arrivalLane="1445926309_0" arrivalPos="22.96" arrivalSpeed="12.64" duration="360.00" routeLength="1334.88" waitingTime="35.00" waitingCount="6" stopTime="0.00" timeLoss="192.86" rerouteNo="1" devices="tripinfo_car27 routing_car27" vType="my_car" speedFactor="1.18" vaporized=""/>
    <tripinfo id="car25" depart="500.00" departLane="-475071113#0_0" departPos="0.20" departSpeed="0.00" departDelay="0.00" arrival="915.00" arrivalLane="-469966399#13_0" arrivalPos="26.91" arrivalSpeed="2.67" duration="415.00" routeLength="1018.97" waitingTime="120.00" waitingCount="15" stopTime="0.00" timeLoss="267.42" rerouteNo="1" devices="tripinfo_car25 routing_car25" vType="my_car" speedFactor="1.02" vaporized=""/>
    <tripinfo id="bus10" depart="800.00" departLane="469966399#4_0" departPos="12.10" departSpeed="0.00" departDelay="0.00" arrival="915.00" arrivalLane="1445927128_0" arrivalPos="12.02" arrivalSpeed="5.07" duration="115.00" routeLength="339.23" waitingTime="20.00" waitingCount="3" stopTime="0.00" timeLoss="59.31" rerouteNo="1" devices="tripinfo_bus10 routing_bus10" vType="my_bus" speedFactor="1.00" vaporized=""/>
    <tripinfo id="emergency12" depart="720.00" departLane="798234860#0_0" departPos="6.60" departSpeed="0.00" departDelay="0.00" arrival="920.00" arrivalLane="-798234860#0_0" arrivalPos="260.77" arrivalSpeed="3.28" duration="200.00" routeLength="512.99" waitingTime="40.00" waitingCount="6" stopTime="0.00" timeLoss="105.48" rerouteNo="0" devices="tripinfo_emergency12 routing_emergency12" vType="my_emergency" speedFactor="1.00" vaporized=""/>
    <tripinfo id="bus9" depart="720.00" departLane="469966399#4_0" departPos="12.10" departSpeed="0.00" departDelay="0.00" arrival="935.00" arrivalLane="-1018228073#0_0" arrivalPos="2039.58" arrivalSpeed="12.08" duration="215.00" routeLength="2489.78" waitingTime="20.00" waitingCount="2" stopTime="0.00" timeLoss="94.59" rerouteNo="1" devices="tripinfo_bus9 routing_bus9" vType="my_bus" speedFactor="1.00" vaporized="teleport"/>
    <tripinfo id="car7" depart="190.00" departLane="1445927129_0" departPos="5.10" departSpeed="0.00" departDelay="50.00" arrival="945.00" arrivalLane="1445926305#1_0" arrivalPos="77.34" arrivalSpeed="9.00" duration="755.00" routeLength="981.93" waitingTime="395.00" waitingCount="26" stopTime="0.00" timeLoss="589.35" rerouteNo="1" devices="tripinfo_car7 routing_car7" vType="my_car" speedFactor="0.86" vaporized=""/>
    <tripinfo id="car37" depart="740.00" departLane="1445927130_0" departPos="5.10" departSpeed="0.00" departDelay="0.00" arrival="955.00" arrivalLane="-475071113#6_0" arrivalPos="4.98" arrivalSpeed="2.85" duration="215.00" routeLength="479.09" waitingTime="45.00" waitingCount="5" stopTime="0.00" timeLoss="143.24" rerouteNo="1" devices="tripinfo_car37 routing_car37" vType="my_car" speedFactor="1.02" vaporized=""/>
    <tripinfo id="car39" depart="780.00" departLane="-469966399#4_0" departPos="5.10" departSpeed="0.00" departDelay="0.00" arrival="955.00" arrivalLane="-469966399#5_0" arrivalPos="47.27" arrivalSpeed="3.38" duration="175.00" routeLength="187.26" waitingTime="65.00" waitingCount="8" stopTime="0.00" timeLoss="142.79" rerouteNo="1" devices="tripinfo_car39 routing_car39" vType="my_car" speedFactor="1.00" vaporized=""/>
    <tripinfo id="car29" depart="590.00" departLane="-1445927127_0" departPos="5.10" departSpeed="0.00" departDelay="10.00" arrival="965.00" arrivalLane="-475071113#4_0" arrivalPos="3.52" arrivalSpeed="4.47" duration="375.00" routeLength="269.34" waitingTime="240.00" waitingCount="15" stopTime="0.00" timeLoss="320.10" rerouteNo="1" devices="tripinfo_car29 routing_car29" vType="my_car" speedFactor="0.90" vaporized=""/>
    <tripinfo id="bike10" depart="500.00" departLane="469966400#0_0" departPos="1.70" departSpeed="0.00" departDelay="0.00" arrival="965.00" arrivalLane="469966399#11_0" arrivalPos="18.52" arrivalSpeed="4.13" duration="465.00" routeLength="645.91" waitingTime="225.00" waitingCount="14" stopTime="0.00" timeLoss="321.19" rerouteNo="1" devices="tripinfo_bike10 routing_bike10" vType="my_bike" speedFactor="1.04" vaporized=""/>
    <tripinfo id="bus8" depart="640.00" departLane="-1445926308#0_0" departPos="12.10" departSpeed="0.00" departDelay="0.00" arrival="970.00" arrivalLane="1445926307_0" arrivalPos="42.90" arrivalSpeed="1.24" duration="330.00" routeLength="399.01" waitingTime="170.00" waitingCount="15" stopTime="0.00" timeLoss="267.27" rerouteNo="1" devices="tripinfo_bus8 routing_bus8" vType="my_bus" speedFactor="1.00" vaporized=""/>
    <tripinfo id="emergency16" depart="960.00" departLane="-695769583_0" departPos="6.60" departSpeed="0.00" departDelay="0.00" arrival="980.00" arrivalLane="695769583_0" arrivalPos="46.32" arrivalSpeed="12.48" duration="20.00" routeLength="92.83" waitingTime="0.00" waitingCount="0" stopTime="0.00" timeLoss="8.76" rerouteNo="0" devices="tripinfo_emergency16 routing_emergency16" vType="my_emergency" speedFactor="1.00" vaporized=""/>
    <tripinfo id="car18" depart="360.00" departLane="469966400#3_0" departPos="5.10" departSpeed="0.00" departDelay="0.00" arrival="985.00" arrivalLane="1445926311_0" arrivalPos="46.79" arrivalSpeed="0.95" duration="625.00" routeLength="374.40" waitingTime="375.00" waitingCount="22" stopTime="0.00" timeLoss="521.28" rerouteNo="1" devices="tripinfo_car18 routing_car18" vType="my_car" speedFactor="0.83" vaporized=""/>
    <tripinfo id="car44" depart="880.00" departLane="-1445926305#1_0" departPos="5.10" departSpeed="0.00" departDelay="0.00" arrival="1020.00" arrivalLane="-1445926303#3_0" arrivalPos="14.47" arrivalSpeed="11.70" duration="140.00" routeLength="401.50" waitingTime="70.00" waitingCount="5" stopTime="0.00" timeLoss="107.63" rerouteNo="1" devices="tripinfo_car44 routing_car44" vType="my_car" speedFactor="0.97" vaporized=""/>
    <tripinfo id="bike15" depart="750.00" departLane="469966400#1_0" departPos="1.70" departSpeed="0.00" departDelay="0.00" arrival="1035.00" arrivalLane="469966399#14_0" arrivalPos="308.45" arrivalSpeed="4.93" duration="285.00" routeLength="737.54" waitingTime="0.00" waitingCount="0" stopTime="0.00" timeLoss="120.49" rerouteNo="1" devices="tripinfo_bike15 routing_bike15" vType="my_bike" speedFactor="1.08" vaporized=""/>