<?xml version="1.0" encoding="UTF-8"?>

<!-- generated on 2026-04-09T23:05:46.805856+05:30 by Eclipse SUMO sumo 1.25.0
<sumoConfiguration xmlns:xsi="http://www.w3.org/2001/XMLSchema-instance" xsi:noNamespaceSchemaLocation="http://sumo.dlr.de/xsd/sumoConfiguration.xsd">

    <input>
        <net-file value="env_iiser/new/map.net.xml"/>
        <route-files value="env_iiser/new/vtypes.add.xml,env_iiser/new/cars.rou.xml,env_iiser/new/buses.rou.xml,env_iiser/new/bikes.rou.xml,env_iiser/new/ambulance.rou.xml"/>
    </input>

    <output>
        <tripinfo-output value="results/baseline_tripinfo.xml"/>
    </output>

    <time>
        <step-length value="5"/>
    </time>

    <report>
        <no-warnings value="true"/>
    </report>

    <traci_server>
        <remote-port value="45367"/>
    </traci_server>

</sumoConfiguration>
-->

<tripinfos xmlns:xsi="http://www.w3.org/2001/XMLSchema-instance" xsi:noNamespaceSchemaLocation="http://sumo.dlr.de/xsd/tripinfo_file.xsd">
    <tripinfo id="car1" depart="20.00" departLane="-469966399#5_0" departPos="5.10" departSpeed="0.00" departDelay="0.00" arrival="75.00" arrivalLane="-469966399#3_0" arrivalPos="54.63" arrivalSpeed="4.35" duration="55.00" routeLength="164.17" waitingTime="5.00" waitingCount="1" stopTime="0.00" timeLoss="21.12" rerouteNo="1" devices="tripinfo_car1 routing_car1" vType="my_car" speedFactor="0.94" vaporized=""/>
    <tripinfo id="bike1" depart="50.00" departLane="-469966399#5_0" departPos="1.70" departSpeed="0.00" departDelay="0.00" arrival="125.00" arrivalLane="-469966399#3_0" arrivalPos="54.63" arrivalSpeed="5.11" duration="75.00" routeLength="167.57" waitingTime="15.00" waitingCount="2" stopTime="0.00" timeLoss="43.61" rerouteNo="1" devices="tripinfo_bike1 routing_bike1" vType="my_bike" speedFactor="1.08" vaporized=""/>
    <tripinfo id="emergency2" depart="120.00" departLane="1445927129_0" departPos="6.60" departSpeed="0.00" departDelay="0.00" arrival="175.00" arrivalLane="1445927128_0" arrivalPos="12.02" arrivalSpeed="4.37" duration="55.00" routeLength="50.80" waitingTime="35.00" waitingCount="2" stopTime="0.00" timeLoss="44.10" rerouteNo="1" devices="tripinfo_emergency2 routing_emergency2" vType="my_emergency" speedFactor="1.00" vaporized=""/>
    <tripinfo id="car6" depart="120.00" departLane="-1445926303#0_0" departPos="5.10" departSpeed="0.00" departDelay="0.00" arrival="225.00" arrivalLane="-469966399#12_0" arrivalPos="51.54" arrivalSpeed="4.18" duration="105.00" routeLength="192.20" waitingTime="25.00" waitingCount="4" stopTime="0.00" timeLoss="74.45" rerouteNo="1" devices="tripinfo_car6 routing_car6" vType="my_car" speedFactor="0.94" vaporized="teleport"/>
    <tripinfo id="car2" depart="40.00" departLane="469966399#3_0" departPos="5.10" departSpeed="0.00" departDelay="0.00" arrival="230.00" arrivalLane="469966399#1_0" arrivalPos="144.22" arrivalSpeed="2.42" duration="190.00" routeLength="505.06" waitingTime="50.00" waitingCount="5" stopTime="0.00" timeLoss="117.45" rerouteNo="1" devices="tripinfo_car2 routing_car2" vType="my_car" speedFactor="1.03" vaporized=""/>
    <tripinfo id="car5" depart="100.00" departLane="-469966399#12_0" departPos="5.10" departSpeed="0.00" departDelay="0.00" arrival="270.00" arrivalLane="1445926303#3_0" arrivalPos="15.38" arrivalSpeed="10.73" duration="170.00" routeLength="410.37" waitingTime="100.00" waitingCount="4" stopTime="0.00" timeLoss="125.62" rerouteNo="1" devices="tripinfo_car5 routing_car5" vType="my_car" speedFactor="0.89" vaporized=""/>
    <tripinfo id="car8" depart="160.00" departLane="-469966399#12_0" departPos="5.10" departSpeed="0.00" departDelay="0.00" arrival="285.00" arrivalLane="1445926308#0_0" arrivalPos="36.96" arrivalSpeed="11.56" duration="125.00" routeLength="323.24" waitingTime="50.00" waitingCount="4" stopTime="0.00" timeLoss="93.13" rerouteNo="1" devices="tripinfo_car8 routing_car8" vType="my_car" speedFactor="1.09" vaporized=""/>
    <tripinfo id="bike2" depart="100.00" departLane="469966399#3_0" departPos="1.70" departSpeed="0.00" departDelay="0.00" arrival="300.00" arrivalLane="469966399#1_0" arrivalPos="144.22" arrivalSpeed="3.03" duration="200.00" routeLength="508.46" waitingTime="30.00" waitingCount="5" stopTime="0.00" timeLoss="101.15" rerouteNo="1" devices="tripinfo_bike2 routing_bike2" vType="my_bike" speedFactor="0.93" vaporized=""/>
    <tripinfo id="bus1" depart="100.00" departLane="-1445927128_0" departPos="12.02" departSpeed="0.00" departDelay="20.00" arrival="310.00" arrivalLane="-469966399#5_0" arrivalPos="47.27" arrivalSpeed="4.93" duration="210.00" routeLength="415.16" waitingTime="95.00" waitingCount="5" stopTime="0.00" timeLoss="139.63" rerouteNo="1" devices="tripinfo_bus1 routing_bus1" vType="my_bus" speedFactor="1.00" vaporized=""/>
    <tripinfo id="bus2" depart="225.00" departLane="1445927129_0" departPos="12.10" departSpeed="0.00" departDelay="65.00" arrival="340.00" arrivalLane="1445927128_0" arrivalPos="12.02" arrivalSpeed="4.95" duration="115.00" routeLength="45.30" waitingTime="95.00" waitingCount="3" stopTime="0.00" timeLoss="106.65" rerouteNo="1" devices="tripinfo_bus2 routing_bus2" vType="my_bus" speedFactor="1.00" vaporized=""/>
    <tripinfo id="car13" depart="260.00" departLane="-1445926305#1_0" departPos="5.10" departSpeed="0.00" departDelay="0.00" arrival="340.00" arrivalLane="-1445926306#1_0" arrivalPos="17.52" arrivalSpeed="14.52" duration="80.00" routeLength="286.82" waitingTime="25.00" waitingCount="2" stopTime="0.00" timeLoss="55.76" rerouteNo="1" devices="tripinfo_car13 routing_car13" vType="my_car" speedFactor="1.16" vaporized=""/>
    <tripinfo id="bike0" depart="5.00" departLane="1445927127_0" departPos="1.70" departSpeed="0.00" departDelay="5.00" arrival="395.00" arrivalLane="-1445926303#1_0" arrivalPos="16.77" arrivalSpeed="3.51" duration="390.00" routeLength="770.96" waitingTime="145.00" waitingCount="9" stopTime="0.00" timeLoss="242.99" rerouteNo="1" devices="tripinfo_bike0 routing_bike0" vType="my_bike" speedFactor="1.01" vaporized=""/>
    <tripinfo id="emergency1" depart="60.00" departLane="-1445927128_0" departPos="6.60" departSpeed="0.00" departDelay="0.00" arrival="395.00" arrivalLane="-469966399#5_0" arrivalPos="47.27" arrivalSpeed="2.25" duration="335.00" routeLength="439.58" waitingTime="155.00" waitingCount="9" stopTime="0.00" timeLoss="254.84" rerouteNo="1" devices="tripinfo_emergency1 routing_emergency1" vType="my_emergency" speedFactor="1.00" vaporized=""/>
    <tripinfo id="emergency5" depart="300.00" departLane="-1445926308#0_0" departPos="6.60" departSpeed="0.00" departDelay="0.00" arrival="395.00" arrivalLane="1445926303#4_0" arrivalPos="17.00" arrivalSpeed="12.31" duration="95.00" routeLength="219.48" waitingTime="35.00" waitingCount="3" stopTime="0.00" timeLoss="76.93" rerouteNo="1" devices="tripinfo_emergency5 routing_emergency5" vType="my_emergency" speedFactor="1.00" vaporized=""/>
    <tripinfo id="bike6" depart="300.00" departLane="-1445926303#0_0" departPos="1.70" departSpeed="0.00" departDelay="0.00" arrival="410.00" arrivalLane="-469966399#12_0" arrivalPos="51.54" arrivalSpeed="2.86" duration="110.00" routeLength="195.60" waitingTime="30.00" waitingCount="4" stopTime="0.00" timeLoss="72.41" rerouteNo="1" devices="tripinfo_bike6 routing_bike6" vType="my_bike" speedFactor="1.18" vaporized=""/>
    <tripinfo id="bike5" depart="250.00" departLane="-469966399#12_0" departPos="1.70" departSpeed="0.00" departDelay="0.00" arrival="455.00" arrivalLane="1445926303#3_0" arrivalPos="15.38" arrivalSpeed="3.15" duration="205.00" routeLength="403.45" waitingTime="80.00" waitingCount="3" stopTime="0.00" timeLoss="127.35" rerouteNo="1" devices="tripinfo_bike5 routing_bike5" vType="my_bike" speedFactor="0.94" vaporized=""/>
    <tripinfo id="car0" depart="0.00" departLane="1445927127_0" departPos="5.10" departSpeed="0.00" departDelay="0.00" arrival="470.00" arrivalLane="-1445926303#1_0" arrivalPos="16.77" arrivalSpeed="11.84" duration="470.00" routeLength="754.29" waitingTime="215.00" waitingCount="19" stopTime="0.00" timeLoss="360.56" rerouteNo="1" devices="tripinfo_car0 routing_car0" vType="my_car" speedFactor="1.06" vaporized=""/>
    <tripinfo id="emergency7" depart="420.00" departLane="1445926305#0_0" departPos="6.60" departSpeed="0.00" departDelay="0.00" arrival="475.00" arrivalLane="1445926303#4_0" arrivalPos="17.00" arrivalSpeed="9.53" duration="55.00" routeLength="284.34" waitingTime="0.00" waitingCount="0" stopTime="0.00" timeLoss="31.39" rerouteNo="1" devices="tripinfo_emergency7 routing_emergency7" vType="my_emergency" speedFactor="1.00" vaporized=""/>
    <tripinfo id="bus5" depart="400.00" departLane="-1445926308#0_0" departPos="12.10" departSpeed="0.00" departDelay="0.00" arrival="485.00" arrivalLane="1445926303#4_0" arrivalPos="17.00" arrivalSpeed="8.21" duration="85.00" routeLength="213.98" waitingTime="35.00" waitingCount="3" stopTime="0.00" timeLoss="68.17" rerouteNo="1" devices="tripinfo_bus5 routing_bus5" vType="my_bus" speedFactor="1.00" vaporized=""/>
    <tripinfo id="car11" depart="220.00" departLane="-469966400#2_0" departPos="5.10" departSpeed="0.00" departDelay="0.00" arrival="520.00" arrivalLane="-469966399#0_0" arrivalPos="42.26" arrivalSpeed="0.92" duration="300.00" routeLength="877.12" waitingTime="30.00" waitingCount="6" stopTime="0.00" timeLoss="175.18" rerouteNo="1" devices="tripinfo_car11 routing_car11" vType="my_car" speedFactor="1.12" vaporized=""/>
    <tripinfo id="bus3" depart="250.00" departLane="475071113#5_0" departPos="5.00" departSpeed="0.00" departDelay="10.00" arrival="520.00" arrivalLane="-1445926305#1_0" arrivalPos="83.00" arrivalSpeed="11.52" duration="270.00" routeLength="1060.10" waitingTime="35.00" waitingCount="4" stopTime="0.00" timeLoss="139.62" rerouteNo="1" devices="tripinfo_bus3 routing_bus3" vType="my_bus" speedFactor="1.00" vaporized=""/>
    <tripinfo id="bus0" depart="0.00" departLane="1445926303#3_0" departPos="12.10" departSpeed="0.00" departDelay="0.00" arrival="535.00" arrivalLane="-1018228073#0_0" arrivalPos="2039.58" arrivalSpeed="14.73" duration="535.00" routeLength="3276.93" waitingTime="95.00" waitingCount="6" stopTime="0.00" timeLoss="218.10" rerouteNo="1" devices="tripinfo_bus0 routing_bus0" vType="my_bus" speedFactor="1.00" vaporized=""/>
    <tripinfo id="bike8" depart="400.00" departLane="-469966399#12_0" departPos="1.70" departSpeed="0.00" departDelay="0.00" arrival="550.00" arrivalLane="1445926308#0_0" arrivalPos="36.96" arrivalSpeed="4.78" duration="150.00" routeLength="326.64" waitingTime="60.00" waitingCount="2" stopTime="0.00" timeLoss="89.55" rerouteNo="1" devices="tripinfo_bike8 routing_bike8" vType="my_bike" speedFactor="1.01" vaporized=""/>
    <tripinfo id="emergency0" depart="15.00" departLane="1445926303#3_0" departPos="6.60" departSpeed="0.00" departDelay="15.00" arrival="570.00" arrivalLane="-1018228073#0_0" arrivalPos="2039.58" arrivalSpeed="21.72" duration="555.00" routeLength="3282.43" waitingTime="95.00" waitingCount="13" stopTime="0.00" timeLoss="280.59" rerouteNo="1" devices="tripinfo_emergency0 routing_emergency0" vType="my_emergency" speedFactor="1.00" vaporized=""/>
    <tripinfo id="car10" depart="200.00" departLane="469966400#0_0" departPos="5.10" departSpeed="0.00" departDelay="0.00" arrival="580.00" arrivalLane="469966399#11_0" arrivalPos="18.52" arrivalSpeed="1.89" duration="380.00" routeLength="509.68" waitingTime="170.00" waitingCount="11" stopTime="0.00" timeLoss="284.68" rerouteNo="1" devices="tripinfo_car10 routing_car10" vType="my_car" speedFactor="1.05" vaporized=""/>
    <tripinfo id="car9" depart="190.00" departLane="469966400#1_0" departPos="5.10" departSpeed="0.00" departDelay="10.00" arrival="620.00" arrivalLane="-1018228073#0_0" arrivalPos="2039.58" arrivalSpeed="20.97" duration="430.00" routeLength="2815.12" waitingTime="105.00" waitingCount="15" stopTime="0.00" timeLoss="235.64" rerouteNo="1" devices="tripinfo_car9 routing_car9" vType="my_car" speedFactor="1.03" vaporized=""/>
    <tripinfo id="bike3" depart="170.00" departLane="475071113#4_0" departPos="1.70" departSpeed="0.00" departDelay="20.00" arrival="630.00" arrivalLane="-1445926306#0_0" arrivalPos="42.86" arrivalSpeed="3.16" duration="460.00" routeLength="851.09" waitingTime="110.00" waitingCount="8" stopTime="0.00" timeLoss="276.97" rerouteNo="1" devices="tripinfo_bike3 routing_bike3" vType="my_bike" speedFactor="0.88" vaporized=""/>
    <tripinfo id="bike4" depart="200.00" departLane="-475071113#5_0" departPos="1.70" departSpeed="0.00" departDelay="0.00" arrival="630.00" arrivalLane="-1445926303#2_0" arrivalPos="206.67" arrivalSpeed="3.64" duration="430.00" routeLength="1158.73" waitingTime="55.00" waitingCount="6" stopTime="0.00" timeLoss="209.40" rerouteNo="1" devices="tripinfo_bike4 routing_bike4" vType="my_bike" speedFactor="0.94" vaporized=""/>
    <tripinfo id="bus7" depart="560.00" departLane="1445926305#0_0" departPos="12.10" departSpeed="0.00" departDelay="0.00" arrival="650.00" arrivalLane="1445926303#4_0" arrivalPos="17.00" arrivalSpeed="12.21" duration="90.00" routeLength="278.84" waitingTime="45.00" waitingCount="3" stopTime="0.00" timeLoss="69.78" rerouteNo="1" devices="tripinfo_bus7 routing_bus7" vType="my_bus" speedFactor="1.00" vaporized=""/>
    <tripinfo id="car20" depart="400.00" departLane="469966399#12_0" departPos="5.10" departSpeed="0.00" departDelay="0.00" arrival="685.00" arrivalLane="-1445926303#3_0" arrivalPos="14.47" arrivalSpeed="11.88" duration="285.00" routeLength="501.11" waitingTime="175.00" waitingCount="10" stopTime="0.00" timeLoss="231.47" rerouteNo="1" devices="tripinfo_car20 routing_car20" vType="my_car" speedFactor="0.92" vaporized=""/>
    <tripinfo id="car16" depart="320.00" departLane="1445926304_0" departPos="5.10" departSpeed="0.00" departDelay="0.00" arrival="690.00" arrivalLane="695769604_0" arrivalPos="81.42" arrivalSpeed="2.09" duration="370.00" routeLength="868.55" waitingTime="100.00" waitingCount="9" stopTime="0.00" timeLoss="250.96" rerouteNo="1" devices="tripinfo_car16 routing_car16" vType="my_car" speedFactor="0.97" vaporized="teleport"/>
    <tripinfo id="car24" depart="480.00" departLane="1445927127_0" departPos="5.10" departSpeed="0.00" departDelay="0.00" arrival="695.00" arrivalLane="-475071113#2_0" arrivalPos="60.00" arrivalSpeed="2.68" duration="215.00" routeLength="205.03" waitingTime="110.00" waitingCount="7" stopTime="0.00" timeLoss="176.87" rerouteNo="1" devices="tripinfo_car24 routing_car24" vType="my_car" speedFactor="0.99" vaporized=""/>
    <tripinfo id="car18" depart="360.00" departLane="469966400#3_0" departPos="5.10" departSpeed="0.00" departDelay="0.00" arrival="745.00" arrivalLane="1445926311_0" arrivalPos="46.79" arrivalSpeed="0.50" duration="385.00" routeLength="362.56" waitingTime="175.00" waitingCount="18" stopTime="0.00" timeLoss="292.00" rerouteNo="1" devices="tripinfo_car18 routing_car18" vType="my_car" speedFactor="0.83" vaporized=""/>
    <tripinfo id="car12" depart="240.00" departLane="695769603_0" departPos="5.10" departSpeed="0.00" departDelay="0.00" arrival="760.00" arrivalLane="-475071113#0_0" arrivalPos="0.20" arrivalSpeed="1.73" duration="520.00" routeLength="720.33" waitingTime="230.00" waitingCount="18" stopTime="0.00" timeLoss="382.11" rerouteNo="1" devices="tripinfo_car12 routing_car12" vType="my_car" speedFactor="0.99" vaporized=""/>
    <tripinfo id="car23" depart="460.00" departLane="-1445926305#2_0" departPos="5.10" departSpeed="0.00" departDelay="0.00" arrival="770.00" arrivalLane="-469966399#8_0" arrivalPos="16.74" arrivalSpeed="3.27" duration="310.00" routeLength="572.07" waitingTime="115.00" waitingCount="13" stopTime="0.00" timeLoss="231.65" rerouteNo="1" devices="tripinfo_car23 routing_car23" vType="my_car" speedFactor="0.93" vaporized=""/>
    <tripinfo id="bus8" depart="640.00" departLane="-1445926308#0_0" departPos="12.10" departSpeed="0.00" departDelay="0.00" arrival="775.00" arrivalLane="1445926307_0" arrivalPos="42.90" arrivalSpeed="1.24" duration="135.00" routeLength="409.07" waitingTime="40.00" waitingCount="6" stopTime="0.00" timeLoss="86.04" rerouteNo="1" devices="tripinfo_bus8 routing_bus8" vType="my_bus" speedFactor="1.00" vaporized="teleport"/>
    <tripinfo id="emergency9" depart="540.00" departLane="469966399#4_0" departPos="6.60" departSpeed="0.00" departDelay="0.00" arrival="790.00" arrivalLane="-1018228073#0_0" arrivalPos="2039.58" arrivalSpeed="20.55" duration="250.00" routeLength="2452.36" waitingTime="35.00" waitingCount="4" stopTime="0.00" timeLoss="104.99" rerouteNo="1" devices="tripinfo_emergency9 routing_emergency9" vType="my_emergency" speedFactor="1.00" vaporized=""/>
    <tripinfo id="emergency4" depart="240.00" departLane="-469966399#9_0" departPos="6.60" departSpeed="0.00" departDelay="0.00" arrival="795.00" arrivalLane="-1018228073#0_0" arrivalPos="2039.58" arrivalSpeed="17.14" duration="555.00" routeLength="2959.74" waitingTime="140.00" waitingCount="17" stopTime="0.00" timeLoss="349.83" rerouteNo="1" devices="tripinfo_emergency4 routing_emergency4" vType="my_emergency" speedFactor="1.00" vaporized="teleport"/>
    <tripinfo id="bike13" depart="650.00" departLane="-1445926305#1_0" departPos="1.70" departSpeed="0.00" departDelay="0.00" arrival="800.00" arrivalLane="-1445926306#1_0" arrivalPos="17.52" arrivalSpeed="4.83" duration="150.00" routeLength="290.22" waitingTime="55.00" waitingCount="3" stopTime="0.00" timeLoss="89.72" rerouteNo="1" devices="tripinfo_bike13 routing_bike13" vType="my_bike" speedFactor="0.90" vaporized=""/>
    <tripinfo id="car34" depart="680.00" departLane="-469966399#9_0" departPos="5.10" departSpeed="0.00" departDelay="0.00" arrival="810.00" arrivalLane="-469966399#7_0" arrivalPos="130.08" arrivalSpeed="3.78" duration="130.00" routeLength="265.30" waitingTime="35.00" waitingCount="3" stopTime="0.00" timeLoss="72.89" rerouteNo="1" devices="tripinfo_car34 routing_car34" vType="my_car" speedFactor="0.85" vaporized=""/>
    <tripinfo id="bike11" depart="550.00" departLane="-469966400#2_0" departPos="1.70" departSpeed="0.00" departDelay="0.00" arrival="820.00" arrivalLane="-469966399#0_0" arrivalPos="42.26" arrivalSpeed="3.98" duration="270.00" routeLength="859.24" waitingTime="35.00" waitingCount="4" stopTime="0.00" timeLoss="116.22" rerouteNo="1" devices="tripinfo_bike11 routing_bike11" vType="my_bike" speedFactor="1.09" vaporized=""/>
    <tripinfo id="bike7" depart="350.00" departLane="1445927129_0" departPos="1.70" departSpeed="0.00" departDelay="0.00" arrival="825.00" arrivalLane="1445926305#1_0" arrivalPos="77.34" arrivalSpeed="3.27" duration="475.00" routeLength="784.75" waitingTime="135.00" waitingCount="16" stopTime="0.00" timeLoss="298.82" rerouteNo="1" devices="tripinfo_bike7 routing_bike7" vType="my_bike" speedFactor="1.15" vaporized=""/>
    <tripinfo id="emergency8" depart="480.00" departLane="-1445926308#0_0" departPos="6.60" departSpeed="0.00" departDelay="0.00" arrival="825.00" arrivalLane="1445926307_0" arrivalPos="42.90" arrivalSpeed="1.17" duration="345.00" routeLength="391.53" waitingTime="215.00" waitingCount="13" stopTime="0.00" timeLoss="284.94" rerouteNo="1" devices="tripinfo_emergency8 routing_emergency8" vType="my_emergency" speedFactor="1.00" vaporized=""/>
    <tripinfo id="emergency10" depart="605.00" departLane="469966399#4_0" departPos="6.60" departSpeed="0.00" departDelay="5.00" arrival="825.00" arrivalLane="1445927128_0" arrivalPos="12.02" arrivalSpeed="1.71" duration="220.00" routeLength="344.28" waitingTime="95.00" waitingCount="5" stopTime="0.00" timeLoss="164.53" rerouteNo="1" devices="tripinfo_emergency10 routing_emergency10" vType="my_emergency" speedFactor="1.00" vaporized=""/>
    <tripinfo id="car15" depart="315.00" departLane="469966400#1_0" departPos="5.10" departSpeed="0.00" departDelay="15.00" arrival="835.00" arrivalLane="469966399#14_0" arrivalPos="308.45" arrivalSpeed="2.61" duration="520.00" routeLength="711.74" waitingTime="195.00" waitingCount="22" stopTime="0.00" timeLoss="365.22" rerouteNo="1" devices="tripinfo_car15 routing_car15" vType="my_car" speedFactor="1.01" vaporized=""/>
    <tripinfo id="car29" depart="580.00" departLane="-1445927127_0" departPos="5.10" departSpeed="0.00" departDelay="0.00" arrival="845.00" arrivalLane="-475071113#4_0" arrivalPos="3.52" arrivalSpeed="4.42" duration="265.00" routeLength="269.34" waitingTime="120.00" waitingCount="12" stopTime="0.00" timeLoss="206.95" rerouteNo="1" devices="tripinfo_car29 routing_car29" vType="my_car" speedFactor="0.90" vaporized=""/>
    <tripinfo id="emergency3" depart="245.00" departLane="475071113#5_0" departPos="5.00" departSpeed="0.00" departDelay="65.00" arrival="850.00" arrivalLane="-1445926305#1_0" arrivalPos="83.00" arrivalSpeed="10.13" duration="605.00" routeLength="1100.31" waitingTime="230.00" waitingCount="21" stopTime="0.00" timeLoss="427.97" rerouteNo="2" devices="tripinfo_emergency3 routing_emergency3" vType="my_emergency" speedFactor="1.00" vaporized=""/>
    <tripinfo id="car17" depart="340.00" departLane="-475071113#0_0" departPos="0.20" departSpeed="0.00" departDelay="0.00" arrival="850.00" arrivalLane="1445926305#2_0" arrivalPos="106.06" arrivalSpeed="7.76" duration="510.00" routeLength="746.88" waitingTime="210.00" waitingCount="25" stopTime="0.00" timeLoss="365.43" rerouteNo="1" devices="tripinfo_car17 routing_car17" vType="my_car" speedFactor="0.89" vaporized=""/>
    <tripinfo id="bus4" depart="320.00" departLane="-469966399#9_0" departPos="12.10" departSpeed="0.00" departDelay="0.00" arrival="850.00" arrivalLane="-1018228073#0_0" arrivalPos="2039.58" arrivalSpeed="12.45" duration="530.00" routeLength="2932.74" waitingTime="135.00" waitingCount="10" stopTime="0.00" timeLoss="253.79" rerouteNo="1" devices="tripinfo_bus4 routing_bus4" vType="my_bus" speedFactor="1.00" vaporized=""/>
    <tripinfo id="bike10" depart="500.00" departLane="469966400#0_0" departPos="1.70" departSpeed="0.00" departDelay="0.00" arrival="855.00" arrivalLane="469966399#11_0" arrivalPos="18.52" arrivalSpeed="5.44" duration="355.00" routeLength="798.44" waitingTime="115.00" waitingCount="7" stopTime="0.00" timeLoss="210.91" rerouteNo="1" devices="tripinfo_bike10 routing_bike10" vType="my_bike" speedFactor="1.04" vaporized=""/>
    <tripinfo id="car22" depart="440.00" departLane="-1445926305#0_0" departPos="5.10" departSpeed="0.00" departDelay="0.00" arrival="860.00" arrivalLane="-469966399#4_0" arrivalPos="43.80" arrivalSpeed="5.88" duration="420.00" routeLength="787.27" waitingTime="125.00" waitingCount="12" stopTime="0.00" timeLoss="298.42" rerouteNo="1" devices="tripinfo_car22 routing_car22" vType="my_car" speedFactor="1.13" vaporized=""/>
    <tripinfo id="bike12" depart="600.00" departLane="695769603_0" departPos="1.70" departSpeed="0.00" departDelay="0.00" arrival="860.00" arrivalLane="-475071113#0_0" arrivalPos="0.20" arrivalSpeed="1.40" duration="260.00" routeLength="703.46" waitingTime="35.00" waitingCount="6" stopTime="0.00" timeLoss="127.82" rerouteNo="1" devices="tripinfo_bike12 routing_bike12" vType="my_bike" speedFactor="1.00" vaporized=""/>
    <tripinfo id="car7" depart="140.00" departLane="1445927129_0" departPos="5.10" departSpeed="0.00" departDelay="0.00" arrival="865.00" arrivalLane="1445926305#1_0" arrivalPos="77.34" arrivalSpeed="8.31" duration="725.00" routeLength="905.36" waitingTime="335.00" waitingCount="25" stopTime="0.00" timeLoss="543.15" rerouteNo="1" devices="tripinfo_car7 routing_car7" vType="my_car" speedFactor="0.86" vaporized=""/>
    <tripinfo id="car3" depart="60.00" departLane="475071113#4_0" departPos="1.83" departSpeed="0.00" departDelay="0.00" arrival="870.00" arrivalLane="-1445926306#0_0" arrivalPos="42.86" arrivalSpeed="8.05" duration="810.00" routeLength="872.35" waitingTime="420.00" waitingCount="31" stopTime="0.00" timeLoss="618.99" rerouteNo="1" devices="tripinfo_car3 routing_car3" vType="my_car" speedFactor="0.83" vaporized=""/>
    <tripinfo id="car33" depart="660.00" departLane="-469966399#13_0" departPos="5.10" departSpeed="0.00" departDelay="0.00" arrival="930.00" arrivalLane="-1445926303#2_0" arrivalPos="206.67" arrivalSpeed="11.18" duration="270.00" routeLength="629.02" waitingTime="160.00" waitingCount="8" stopTime="0.00" timeLoss="211.95" rerouteNo="1" devices="tripinfo_car33 routing_car33" vType="my_car" speedFactor="1.04" vaporized=""/>
    <tripinfo id="car37" depart="740.00" departLane="1445927130_0" departPos="5.10" departSpeed="0.00" departDelay="0.00" arrival="930.00" arrivalLane="-475071113#6_0" arrivalPos="4.98" arrivalSpeed="3.48" duration="190.00" routeLength="479.09" waitingTime="40.00" waitingCount="6" stopTime="0.00" timeLoss="118.17" rerouteNo="1" devices="tripinfo_car37 routing_car37" vType="my_car" speedFactor="1.02" vaporized=""/>
    <tripinfo id="emergency12" depart="720.00" departLane="798234860#0_0" departPos="6.60" departSpeed="0.00" departDelay="0.00" arrival="930.00" arrivalLane="-798234860#0_0" arrivalPos="260.77" arrivalSpeed="3.66" duration="210.00" routeLength="512.99" waitingTime="45.00" waitingCount="7" stopTime="0.00" timeLoss="115.67" rerouteNo="0" devices="tripinfo_emergency12 routing_emergency12" vType="my_emergency" speedFactor="1.00" vaporized=""/>
    <tripinfo id="car4" depart="80.00" departLane="-475071113#5_0" departPos="5.00" departSpeed="0.00" departDelay="0.00" arrival="950.00" arrivalLane="-1445926303#2_0" arrivalPos="206.67" arrivalSpeed="8.88" duration="870.00" routeLength="1189.83" waitingTime="490.00" waitingCount="30" stopTime="0.00" timeLoss="713.54" rerouteNo="1" devices="tripinfo_car4 routing_car4" vType="my_car" speedFactor="1.05" vaporized=""/>
    <tripinfo id="car31" depart="620.00" departLane="1445926305#1_0" departPos="5.10" departSpeed="0.00" departDelay="0.00" arrival="955.00" arrivalLane="469966399#10_0" arrivalPos="131.71" arrivalSpeed="3.17" duration="335.00" routeLength="519.27" waitingTime="160.00" waitingCount="14" stopTime="0.00" timeLoss="260.56" rerouteNo="1" devices="tripinfo_car31 routing_car31" vType="my_car" speedFactor="0.96" vaporized=""/>
    <tripinfo id="car21" depart="420.00" departLane="-469966399#13_0" departPos="5.10" departSpeed="0.00" departDelay="0.00" arrival="965.00" arrivalLane="-469966400#0_0" arrivalPos="70.93" arrivalSpeed="3.68" duration="545.00" routeLength="832.15" waitingTime="190.00" waitingCount="20" stopTime="0.00" timeLoss="385.41" rerouteNo="1" devices="tripinfo_car21 routing_car21" vType="my_car" speedFactor="0.95" vaporized=""/>
    <tripinfo id="car27" depart="540.00" departLane="1445927129_0" departPos="5.10" departSpeed="0.00" departDelay="0.00" arrival="975.00" arrivalLane="1445926309_0" arrivalPos="22.96" arrivalSpeed="12.85" duration="435.00" routeLength="1324.80" waitingTime="80.00" waitingCount="11" stopTime="0.00" timeLoss="273.66" rerouteNo="1" devices="tripinfo_car27 routing_car27" vType="my_car" speedFactor="1.18" vaporized=""/>
    <tripinfo id="bus9" depart="720.00" departLane="469966399#4_0" departPos="12.10" departSpeed="0.00" departDelay="0.00" arrival="995.00" arrivalLane="-1018228073#0_0" arrivalPos="2039.58" arrivalSpeed="7.67" duration="275.00" routeLength="2473.65" waitingTime="65.00" waitingCount="3" stopTime="0.00" timeLoss="152.61" rerouteNo="1" devices="tripinfo_bus9 routing_bus9" vType="my_bus" speedFactor="1.00" vaporized="teleport"/>
    <tripinfo id="bus10" depart="810.00" departLane="469966399#4_0" departPos="12.10" departSpeed="0.00" departDelay="10.00" arrival="1005.00" arrivalLane="1445927128_0" arrivalPos="12.02" arrivalSpeed="4.32" duration="195.00" routeLength="348.51" waitingTime="45.00" waitingCount="7" stopTime="0.00" timeLoss="132.50" rerouteNo="1" devices="tripinfo_bus10 routing_bus10" vType="my_bus" speedFactor="1.00" vaporized=""/>
    <tripinfo id="car39" depart="780.00" departLane="-469966399#4_0" departPos="5.10" departSpeed="0.00" departDelay="0.00" arrival="1010.00" arrivalLane="-469966399#5_0" arrivalPos="47.27" arrivalSpeed="0.77" duration="230.00" routeLength="202.15" waitingTime="145.00" waitingCount="5" stopTime="0.00" timeLoss="193.74" rerouteNo="1" devices="tripinfo_car39 routing_car39" vType="my_car" speedFactor="1.00" vaporized=""/>
    <tripinfo id="emergency16" depart="960.00" departLane="-695769583_0" departPos="6.60" departSpeed="0.00" departDelay="0.00" arrival="1015.00" arrivalLane="695769583_0" arrivalPos="46.32" arrivalSpeed="11.50" duration="55.00" routeLength="92.83" waitingTime="25.00" waitingCount="1" stopTime="0.00" timeLoss="45.76" rerouteNo="0" devices="tripinfo_emergency16 routing_emergency16" vType="my_emergency" speedFactor="1.00" vaporized=""/>
    <tripinfo id="car14" depart="280.00" departLane="475071113#0_0" departPos="0.20" departSpeed="0.00" departDelay="0.00" arrival="1020.00" arrivalLane="1445926308#1_0" arrivalPos="180.48" arrivalSpeed="9.60" duration="740.00" routeLength="884.07" waitingTime="430.00" waitingCount="31" stopTime="0.00" timeLoss="590.92" rerouteNo="1" devices="tripinfo_car14 routing_car14" vType="my_car" speedFactor="1.02" vaporized="teleport"/>
    <tripinfo id="car42" depart="840.00" departLane="-475071113#3_0" departPos="5.10" departSpeed="0.00" departDelay="0.00" arrival="1035.00" arrivalLane="-469966399#2_0" arrivalPos="51.13" arrivalSpeed="4.45" duration="195.00" routeLength="673.88" waitingTime="10.00" waitingCount="2" stopTime="0.00" timeLoss="90.13" rerouteNo="1" devices="tripinfo_car42 routing_car42" vType="my_car" speedFactor="1.14" vaporized=""/>
    <tripinfo id="bike16" depart="800.00" departLane="1445926304_0" departPos="1.70" departSpeed="0.00" departDelay="0.00" arrival="1050.00" arrivalLane="695769604_0" arrivalPos="81.42" arrivalSpeed="0.87" duration="250.00" routeLength="870.20" waitingTime="20.00" waitingCount="1" stopTime="0.00" timeLoss="100.22" rerouteNo="1" devices="tripinfo_bike16 routing_bike16" vType="my_bike" speedFactor="1.12" vaporized="teleport"/>