<?xml version="1.0" encoding="UTF-8"?>

<!-- generated on 2026-04-09T23:14:53.016822+05:30 by Eclipse SUMO sumo 1.25.0
<sumoConfiguration xmlns:xsi="http://www.w3.org/2001/XMLSchema-instance" xsi:noNamespaceSchemaLocation="http://sumo.dlr.de/xsd/sumoConfiguration.xsd">

    <input>
        <net-file value="env_iiser/new/map.net.xml"/>
        <route-files value="env_iiser/new/vtypes.add.xml,env_iiser/new/cars.rou.xml,env_iiser/new/buses.rou.xml,env_iiser/new/bikes.rou.xml,env_iiser/new/ambulance.rou.xml"/>
    </input>

    <output>
        <tripinfo-output value="results/random_tripinfo.xml"/>
    </output>

    <processing>
        <time-to-teleport value="-1"/>
        <waiting-time-memory value="1000"/>
        <max-depart-delay value="-1"/>
    </processing>

    <traci_server>
        <remote-port value="42061"/>
    </traci_server>

    <random_number>
        <random value="true"/>
    </random_number>

</sumoConfiguration>
-->

<tripinfos xmlns:xsi="http://www.w3.org/2001/XMLSchema-instance" xsi:noNamespaceSchemaLocation="http://sumo.dlr.de/xsd/tripinfo_file.xsd">
    <tripinfo id="car1" depart="20.00" departLane="-469966399#5_0" departPos="5.10" departSpeed="0.00" departDelay="0.00" arrival="63.00" arrivalLane="-469966399#3_0" arrivalPos="54.63" arrivalSpeed="3.78" duration="43.00" routeLength="164.17" waitingTime="0.00" waitingCount="0" stopTime="0.00" timeLoss="7.22" rerouteNo="1" devices="tripinfo_car1 routing_car1" vType="my_car" speedFactor="0.83" vaporized=""/>
    <tripinfo id="bike1" depart="50.00" departLane="-469966399#5_0" departPos="1.70" departSpeed="0.00" departDelay="0.00" arrival="112.00" arrivalLane="-469966399#3_0" arrivalPos="54.63" arrivalSpeed="4.94" duration="62.00" routeLength="167.57" waitingTime="23.00" waitingCount="1" stopTime="0.00" timeLoss="31.18" rerouteNo="1" devices="tripinfo_bike1 routing_bike1" vType="my_bike" speedFactor="1.17" vaporized=""/>
    <tripinfo id="emergency2" depart="120.00" departLane="1445927129_0" departPos="6.60" departSpeed="0.00" departDelay="0.00" arrival="132.00" arrivalLane="1445927128_0" arrivalPos="12.02" arrivalSpeed="5.02" duration="12.00" routeLength="50.80" waitingTime="0.00" waitingCount="0" stopTime="0.00" timeLoss="1.99" rerouteNo="1" devices="tripinfo_emergency2 routing_emergency2" vType="my_emergency" speedFactor="1.00" vaporized=""/>
    <tripinfo id="car2" depart="45.00" departLane="469966399#3_0" departPos="5.10" departSpeed="0.00" departDelay="5.00" arrival="162.00" arrivalLane="469966399#1_0" arrivalPos="144.22" arrivalSpeed="4.88" duration="117.00" routeLength="505.06" waitingTime="25.00" waitingCount="3" stopTime="0.00" timeLoss="45.83" rerouteNo="1" devices="tripinfo_car2 routing_car2" vType="my_car" speedFactor="1.06" vaporized=""/>
    <tripinfo id="bus2" depart="160.00" departLane="1445927129_0" departPos="12.10" departSpeed="0.00" departDelay="0.00" arrival="182.00" arrivalLane="1445927128_0" arrivalPos="12.02" arrivalSpeed="5.18" duration="22.00" routeLength="45.30" waitingTime="7.00" waitingCount="1" stopTime="0.00" timeLoss="13.33" rerouteNo="1" devices="tripinfo_bus2 routing_bus2" vType="my_bus" speedFactor="1.00" vaporized=""/>
    <tripinfo id="emergency1" depart="60.00" departLane="-1445927128_0" departPos="6.60" departSpeed="0.00" departDelay="0.00" arrival="213.00" arrivalLane="-469966399#5_0" arrivalPos="47.27" arrivalSpeed="4.41" duration="153.00" routeLength="439.58" waitingTime="48.00" waitingCount="4" stopTime="0.00" timeLoss="73.47" rerouteNo="1" devices="tripinfo_emergency1 routing_emergency1" vType="my_emergency" speedFactor="1.00" vaporized=""/>
    <tripinfo id="bus1" depart="80.00" departLane="-1445927128_0" departPos="12.02" departSpeed="0.00" departDelay="0.00" arrival="217.00" arrivalLane="-469966399#5_0" arrivalPos="47.27" arrivalSpeed="5.49" duration="137.00" routeLength="434.16" waitingTime="40.00" waitingCount="2" stopTime="0.00" timeLoss="58.27" rerouteNo="1" devices="tripinfo_bus1 routing_bus1" vType="my_bus" speedFactor="1.00" vaporized=""/>
    <tripinfo id="bike2" depart="100.00" departLane="469966399#3_0" departPos="1.70" departSpeed="0.00" departDelay="0.00" arrival="245.00" arrivalLane="469966399#1_0" arrivalPos="144.22" arrivalSpeed="4.86" duration="145.00" routeLength="508.46" waitingTime="31.00" waitingCount="2" stopTime="0.00" timeLoss="48.98" rerouteNo="1" devices="tripinfo_bike2 routing_bike2" vType="my_bike" speedFactor="0.96" vaporized=""/>
    <tripinfo id="car6" depart="120.00" departLane="-1445926303#0_0" departPos="5.10" departSpeed="0.00" departDelay="0.00" arrival="261.00" arrivalLane="-469966399#12_0" arrivalPos="51.54" arrivalSpeed="4.59" duration="141.00" routeLength="192.20" waitingTime="91.00" waitingCount="3" stopTime="0.00" timeLoss="105.68" rerouteNo="1" devices="tripinfo_car6 routing_car6" vType="my_car" speedFactor="0.86" vaporized=""/>
    <tripinfo id="car0" depart="0.00" departLane="1445927127_0" departPos="5.10" departSpeed="0.00" departDelay="0.00" arrival="289.00" arrivalLane="-1445926303#1_0" arrivalPos="16.77" arrivalSpeed="9.24" duration="289.00" routeLength="778.72" waitingTime="107.00" waitingCount="2" stopTime="0.00" timeLoss="149.06" rerouteNo="1" devices="tripinfo_car0 routing_car0" vType="my_car" speedFactor="1.02" vaporized=""/>
    <tripinfo id="bike0" depart="2.00" departLane="1445927127_0" departPos="1.70" departSpeed="0.00" departDelay="2.00" arrival="313.00" arrivalLane="-1445926303#1_0" arrivalPos="16.77" arrivalSpeed="5.35" duration="311.00" routeLength="782.12" waitingTime="117.00" waitingCount="3" stopTime="0.00" timeLoss="157.02" rerouteNo="1" devices="tripinfo_bike0 routing_bike0" vType="my_bike" speedFactor="1.03" vaporized=""/>
    <tripinfo id="car5" depart="100.00" departLane="-469966399#12_0" departPos="5.10" departSpeed="0.00" departDelay="0.00" arrival="322.00" arrivalLane="1445926303#3_0" arrivalPos="15.38" arrivalSpeed="9.38" duration="222.00" routeLength="410.37" waitingTime="165.00" waitingCount="3" stopTime="0.00" timeLoss="184.04" rerouteNo="1" devices="tripinfo_car5 routing_car5" vType="my_car" speedFactor="1.02" vaporized=""/>
    <tripinfo id="car3" depart="60.00" departLane="475071113#4_0" departPos="1.83" departSpeed="0.00" departDelay="0.00" arrival="331.00" arrivalLane="-1445926306#0_0" arrivalPos="42.86" arrivalSpeed="13.13" duration="271.00" routeLength="872.35" waitingTime="69.00" waitingCount="5" stopTime="0.00" timeLoss="113.27" rerouteNo="1" devices="tripinfo_car3 routing_car3" vType="my_car" speedFactor="0.98" vaporized=""/>
    <tripinfo id="emergency5" depart="300.00" departLane="-1445926308#0_0" departPos="6.60" departSpeed="0.00" departDelay="0.00" arrival="334.00" arrivalLane="1445926303#4_0" arrivalPos="17.00" arrivalSpeed="12.88" duration="34.00" routeLength="219.48" waitingTime="7.00" waitingCount="1" stopTime="0.00" timeLoss="16.78" rerouteNo="1" devices="tripinfo_emergency5 routing_emergency5" vType="my_emergency" speedFactor="1.00" vaporized=""/>
    <tripinfo id="car13" depart="260.00" departLane="-1445926305#1_0" departPos="5.10" departSpeed="0.00" departDelay="0.00" arrival="336.00" arrivalLane="-1445926306#1_0" arrivalPos="17.52" arrivalSpeed="13.38" duration="76.00" routeLength="286.82" waitingTime="40.00" waitingCount="1" stopTime="0.00" timeLoss="51.70" rerouteNo="1" devices="tripinfo_car13 routing_car13" vType="my_car" speedFactor="1.00" vaporized=""/>
    <tripinfo id="car8" depart="160.00" departLane="-469966399#12_0" departPos="5.10" departSpeed="0.00" departDelay="0.00" arrival="344.00" arrivalLane="1445926308#0_0" arrivalPos="36.96" arrivalSpeed="12.31" duration="184.00" routeLength="323.24" waitingTime="129.00" waitingCount="3" stopTime="0.00" timeLoss="149.97" rerouteNo="1" devices="tripinfo_car8 routing_car8" vType="my_car" speedFactor="0.97" vaporized=""/>
    <tripinfo id="bike6" depart="300.00" departLane="-1445926303#0_0" departPos="1.70" departSpeed="0.00" departDelay="0.00" arrival="357.00" arrivalLane="-469966399#12_0" arrivalPos="51.54" arrivalSpeed="5.29" duration="57.00" routeLength="195.60" waitingTime="11.00" waitingCount="1" stopTime="0.00" timeLoss="19.83" rerouteNo="1" devices="tripinfo_bike6 routing_bike6" vType="my_bike" speedFactor="0.97" vaporized=""/>
    <tripinfo id="bus0" depart="0.00" departLane="1445926303#3_0" departPos="12.10" departSpeed="0.00" departDelay="0.00" arrival="396.00" arrivalLane="-1018228073#0_0" arrivalPos="2039.58" arrivalSpeed="14.88" duration="396.00" routeLength="3276.93" waitingTime="44.00" waitingCount="3" stopTime="0.00" timeLoss="81.43" rerouteNo="1" devices="tripinfo_bus0 routing_bus0" vType="my_bus" speedFactor="1.00" vaporized=""/>
    <tripinfo id="car11" depart="220.00" departLane="-469966400#2_0" departPos="5.10" departSpeed="0.00" departDelay="0.00" arrival="415.00" arrivalLane="-469966399#0_0" arrivalPos="42.26" arrivalSpeed="4.75" duration="195.00" routeLength="877.12" waitingTime="29.00" waitingCount="2" stopTime="0.00" timeLoss="55.86" rerouteNo="1" devices="tripinfo_car11 routing_car11" vType="my_car" speedFactor="1.01" vaporized=""/>
    <tripinfo id="car10" depart="200.00" departLane="469966400#0_0" departPos="5.10" departSpeed="0.00" departDelay="0.00" arrival="418.00" arrivalLane="469966399#11_0" arrivalPos="18.52" arrivalSpeed="5.19" duration="218.00" routeLength="520.77" waitingTime="94.00" waitingCount="3" stopTime="0.00" timeLoss="120.09" rerouteNo="1" devices="tripinfo_car10 routing_car10" vType="my_car" speedFactor="1.06" vaporized=""/>
    <tripinfo id="emergency0" depart="5.00" departLane="1445926303#3_0" departPos="6.60" departSpeed="0.00" departDelay="5.00" arrival="428.00" arrivalLane="-1018228073#0_0" arrivalPos="2039.58" arrivalSpeed="21.97" duration="423.00" routeLength="3282.43" waitingTime="92.00" waitingCount="6" stopTime="0.00" timeLoss="151.75" rerouteNo="1" devices="tripinfo_emergency0 routing_emergency0" vType="my_emergency" speedFactor="1.00" vaporized=""/>
    <tripinfo id="car9" depart="180.00" departLane="469966400#1_0" departPos="5.10" departSpeed="0.00" departDelay="0.00" arrival="429.00" arrivalLane="-1018228073#0_0" arrivalPos="2039.58" arrivalSpeed="22.14" duration="249.00" routeLength="2820.23" waitingTime="9.00" waitingCount="1" stopTime="0.00" timeLoss="44.03" rerouteNo="1" devices="tripinfo_car9 routing_car9" vType="my_car" speedFactor="1.04" vaporized=""/>
    <tripinfo id="bus5" depart="400.00" departLane="-1445926308#0_0" departPos="12.10" departSpeed="0.00" departDelay="0.00" arrival="439.00" arrivalLane="1445926303#4_0" arrivalPos="17.00" arrivalSpeed="11.14" duration="39.00" routeLength="213.98" waitingTime="7.00" waitingCount="1" stopTime="0.00" timeLoss="22.68" rerouteNo="1" devices="tripinfo_bus5 routing_bus5" vType="my_bus" speedFactor="1.00" vaporized=""/>
    <tripinfo id="car12" depart="240.00" departLane="695769603_0" departPos="5.10" departSpeed="0.00" departDelay="0.00" arrival="445.00" arrivalLane="-475071113#0_0" arrivalPos="0.20" arrivalSpeed="2.63" duration="205.00" routeLength="720.33" waitingTime="11.00" waitingCount="2" stopTime="0.00" timeLoss="46.53" rerouteNo="1" devices="tripinfo_car12 routing_car12" vType="my_car" speedFactor="0.87" vaporized=""/>
    <tripinfo id="car4" depart="80.00" departLane="-475071113#5_0" departPos="5.00" departSpeed="0.00" departDelay="0.00" arrival="446.00" arrivalLane="-1445926303#2_0" arrivalPos="206.67" arrivalSpeed="14.28" duration="366.00" routeLength="1246.00" waitingTime="130.00" waitingCount="6" stopTime="0.00" timeLoss="190.37" rerouteNo="1" devices="tripinfo_car4 routing_car4" vType="my_car" speedFactor="1.03" vaporized=""/>
    <tripinfo id="bike3" depart="150.00" departLane="475071113#4_0" departPos="1.70" departSpeed="0.00" departDelay="0.00" arrival="448.00" arrivalLane="-1445926306#0_0" arrivalPos="42.86" arrivalSpeed="4.90" duration="298.00" routeLength="872.48" waitingTime="86.00" waitingCount="7" stopTime="0.00" timeLoss="119.65" rerouteNo="1" devices="tripinfo_bike3 routing_bike3" vType="my_bike" speedFactor="0.95" vaporized=""/>
    <tripinfo id="emergency7" depart="420.00" departLane="1445926305#0_0" departPos="6.60" departSpeed="0.00" departDelay="0.00" arrival="450.00" arrivalLane="1445926303#4_0" arrivalPos="17.00" arrivalSpeed="13.88" duration="30.00" routeLength="298.25" waitingTime="0.00" waitingCount="0" stopTime="0.00" timeLoss="6.51" rerouteNo="1" devices="tripinfo_emergency7 routing_emergency7" vType="my_emergency" speedFactor="1.00" vaporized=""/>
    <tripinfo id="bike5" depart="251.00" departLane="-469966399#12_0" departPos="1.70" departSpeed="0.00" departDelay="1.00" arrival="455.00" arrivalLane="1445926303#3_0" arrivalPos="15.38" arrivalSpeed="5.24" duration="204.00" routeLength="413.77" waitingTime="102.00" waitingCount="4" stopTime="0.00" timeLoss="126.65" rerouteNo="1" devices="tripinfo_bike5 routing_bike5" vType="my_bike" speedFactor="0.96" vaporized=""/>
    <tripinfo id="car7" depart="140.00" departLane="1445927129_0" departPos="5.10" departSpeed="0.00" departDelay="0.00" arrival="456.00" arrivalLane="1445926305#1_0" arrivalPos="77.34" arrivalSpeed="12.17" duration="316.00" routeLength="930.26" waitingTime="72.00" waitingCount="7" stopTime="0.00" timeLoss="133.74" rerouteNo="1" devices="tripinfo_car7 routing_car7" vType="my_car" speedFactor="0.88" vaporized=""/>
    <tripinfo id="bike8" depart="400.00" departLane="-469966399#12_0" departPos="1.70" departSpeed="0.00" departDelay="0.00" arrival="513.00" arrivalLane="1445926308#0_0" arrivalPos="36.96" arrivalSpeed="4.12" duration="113.00" routeLength="326.64" waitingTime="26.00" waitingCount="2" stopTime="0.00" timeLoss="41.72" rerouteNo="1" devices="tripinfo_bike8 routing_bike8" vType="my_bike" speedFactor="0.83" vaporized=""/>
    <tripinfo id="car15" depart="300.00" departLane="469966400#1_0" departPos="5.10" departSpeed="0.00" departDelay="0.00" arrival="529.00" arrivalLane="469966399#14_0" arrivalPos="308.45" arrivalSpeed="5.68" duration="229.00" routeLength="734.14" waitingTime="10.00" waitingCount="3" stopTime="0.00" timeLoss="63.35" rerouteNo="1" devices="tripinfo_car15 routing_car15" vType="my_car" speedFactor="1.02" vaporized=""/>
    <tripinfo id="car16" depart="320.00" departLane="1445926304_0" departPos="5.10" departSpeed="0.00" departDelay="0.00" arrival="541.00" arrivalLane="695769604_0" arrivalPos="81.42" arrivalSpeed="1.47" duration="221.00" routeLength="868.55" waitingTime="39.00" waitingCount="2" stopTime="0.00" timeLoss="75.83" rerouteNo="1" devices="tripinfo_car16 routing_car16" vType="my_car" speedFactor="0.97" vaporized=""/>
    <tripinfo id="car24" depart="480.00" departLane="1445927127_0" departPos="5.10" departSpeed="0.00" departDelay="0.00" arrival="560.00" arrivalLane="-475071113#2_0" arrivalPos="60.00" arrivalSpeed="4.70" duration="80.00" routeLength="205.03" waitingTime="36.00" waitingCount="1" stopTime="0.00" timeLoss="44.38" rerouteNo="1" devices="tripinfo_car24 routing_car24" vType="my_car" speedFactor="1.06" vaporized=""/>
    <tripinfo id="car18" depart="361.00" departLane="469966400#3_0" departPos="5.10" departSpeed="0.00" departDelay="1.00" arrival="564.00" arrivalLane="1445926311_0" arrivalPos="46.79" arrivalSpeed="0.75" duration="203.00" routeLength="612.40" waitingTime="24.00" waitingCount="5" stopTime="0.00" timeLoss="77.85" rerouteNo="1" devices="tripinfo_car18 routing_car18" vType="my_car" speedFactor="1.01" vaporized=""/>
    <tripinfo id="emergency3" depart="180.00" departLane="475071113#5_0" departPos="5.00" departSpeed="0.00" departDelay="0.00" arrival="581.00" arrivalLane="-1445926305#1_0" arrivalPos="83.00" arrivalSpeed="13.19" duration="401.00" routeLength="974.30" waitingTime="160.00" waitingCount="6" stopTime="0.00" timeLoss="241.57" rerouteNo="1" devices="tripinfo_emergency3 routing_emergency3" vType="my_emergency" speedFactor="1.00" vaporized=""/>
    <tripinfo id="car20" depart="400.00" departLane="469966399#12_0" departPos="5.10" departSpeed="0.00" departDelay="0.00" arrival="582.00" arrivalLane="-1445926303#3_0" arrivalPos="14.47" arrivalSpeed="14.29" duration="182.00" routeLength="568.05" waitingTime="111.00" waitingCount="3" stopTime="0.00" timeLoss="135.58" rerouteNo="1" devices="tripinfo_car20 routing_car20" vType="my_car" speedFactor="1.13" vaporized=""/>
    <tripinfo id="emergency4" depart="240.00" departLane="-469966399#9_0" departPos="6.60" departSpeed="0.00" departDelay="0.00" arrival="585.00" arrivalLane="-1018228073#0_0" arrivalPos="2039.58" arrivalSpeed="21.78" duration="345.00" routeLength="2959.74" waitingTime="68.00" waitingCount="5" stopTime="0.00" timeLoss="105.83" rerouteNo="1" devices="tripinfo_emergency4 routing_emergency4" vType="my_emergency" speedFactor="1.00" vaporized=""/>
    <tripinfo id="car21" depart="420.00" departLane="-469966399#13_0" departPos="5.10" departSpeed="0.00" departDelay="0.00" arrival="588.00" arrivalLane="-469966400#0_0" arrivalPos="70.93" arrivalSpeed="5.43" duration="168.00" routeLength="832.15" waitingTime="14.00" waitingCount="2" stopTime="0.00" timeLoss="37.11" rerouteNo="1" devices="tripinfo_car21 routing_car21" vType="my_car" speedFactor="1.15" vaporized=""/>
    <tripinfo id="bus3" depart="240.00" departLane="475071113#5_0" departPos="5.00" departSpeed="0.00" departDelay="0.00" arrival="591.00" arrivalLane="-1445926305#1_0" arrivalPos="83.00" arrivalSpeed="12.59" duration="351.00" routeLength="974.30" waitingTime="126.00" waitingCount="4" stopTime="0.00" timeLoss="191.54" rerouteNo="1" devices="tripinfo_bus3 routing_bus3" vType="my_bus" speedFactor="1.00" vaporized=""/>
    <tripinfo id="emergency8" depart="480.00" departLane="-1445926308#0_0" departPos="6.60" departSpeed="0.00" departDelay="0.00" arrival="620.00" arrivalLane="1445926307_0" arrivalPos="42.90" arrivalSpeed="1.30" duration="140.00" routeLength="404.51" waitingTime="52.00" waitingCount="2" stopTime="0.00" timeLoss="78.11" rerouteNo="1" devices="tripinfo_emergency8 routing_emergency8" vType="my_emergency" speedFactor="1.00" vaporized=""/>
    <tripinfo id="car23" depart="460.00" departLane="-1445926305#2_0" departPos="5.10" departSpeed="0.00" departDelay="0.00" arrival="625.00" arrivalLane="-469966399#8_0" arrivalPos="16.74" arrivalSpeed="5.86" duration="165.00" routeLength="579.76" waitingTime="68.00" waitingCount="4" stopTime="0.00" timeLoss="97.14" rerouteNo="1" devices="tripinfo_car23 routing_car23" vType="my_car" speedFactor="1.09" vaporized=""/>
    <tripinfo id="bus4" depart="320.00" departLane="-469966399#9_0" departPos="12.10" departSpeed="0.00" departDelay="0.00" arrival="633.00" arrivalLane="-1018228073#0_0" arrivalPos="2039.58" arrivalSpeed="14.60" duration="313.00" routeLength="2954.24" waitingTime="2.00" waitingCount="1" stopTime="0.00" timeLoss="30.27" rerouteNo="1" devices="tripinfo_bus4 routing_bus4" vType="my_bus" speedFactor="1.00" vaporized=""/>
    <tripinfo id="car29" depart="580.00" departLane="-1445927127_0" departPos="5.10" departSpeed="0.00" departDelay="0.00" arrival="641.00" arrivalLane="-475071113#4_0" arrivalPos="3.52" arrivalSpeed="5.36" duration="61.00" routeLength="269.34" waitingTime="4.00" waitingCount="1" stopTime="0.00" timeLoss="14.76" rerouteNo="1" devices="tripinfo_car29 routing_car29" vType="my_car" speedFactor="1.07" vaporized=""/>
    <tripinfo id="bike4" depart="200.00" departLane="-475071113#5_0" departPos="1.70" departSpeed="0.00" departDelay="0.00" arrival="657.00" arrivalLane="-1445926303#2_0" arrivalPos="206.67" arrivalSpeed="5.18" duration="457.00" routeLength="1249.30" waitingTime="150.00" waitingCount="9" stopTime="0.00" timeLoss="218.91" rerouteNo="1" devices="tripinfo_bike4 routing_bike4" vType="my_bike" speedFactor="1.04" vaporized=""/>
    <tripinfo id="car17" depart="340.00" departLane="-475071113#0_0" departPos="0.20" departSpeed="0.00" departDelay="0.00" arrival="659.00" arrivalLane="1445926305#2_0" arrivalPos="106.06" arrivalSpeed="14.17" duration="319.00" routeLength="776.95" waitingTime="113.00" waitingCount="5" stopTime="0.00" timeLoss="168.62" rerouteNo="1" devices="tripinfo_car17 routing_car17" vType="my_car" speedFactor="1.05" vaporized=""/>
    <tripinfo id="bus7" depart="560.00" departLane="1445926305#0_0" departPos="12.10" departSpeed="0.00" departDelay="0.00" arrival="668.00" arrivalLane="1445926303#4_0" arrivalPos="17.00" arrivalSpeed="10.17" duration="108.00" routeLength="357.52" waitingTime="55.00" waitingCount="2" stopTime="0.00" timeLoss="79.98" rerouteNo="1" devices="tripinfo_bus7 routing_bus7" vType="my_bus" speedFactor="1.00" vaporized=""/>
    <tripinfo id="car14" depart="280.00" departLane="475071113#0_0" departPos="0.20" departSpeed="0.00" departDelay="0.00" arrival="676.00" arrivalLane="1445926308#1_0" arrivalPos="180.48" arrivalSpeed="10.79" duration="396.00" routeLength="1017.18" waitingTime="166.00" waitingCount="6" stopTime="0.00" timeLoss="218.18" rerouteNo="1" devices="tripinfo_car14 routing_car14" vType="my_car" speedFactor="0.85" vaporized=""/>
    <tripinfo id="bike10" depart="500.00" departLane="469966400#0_0" departPos="1.70" departSpeed="0.00" departDelay="0.00" arrival="691.00" arrivalLane="469966399#11_0" arrivalPos="18.52" arrivalSpeed="3.09" duration="191.00" routeLength="524.17" waitingTime="61.00" waitingCount="3" stopTime="0.00" timeLoss="89.90" rerouteNo="1" devices="tripinfo_bike10 routing_bike10" vType="my_bike" speedFactor="1.19" vaporized=""/>
    <tripinfo id="car22" depart="440.00" departLane="-1445926305#0_0" departPos="5.10" departSpeed="0.00" departDelay="0.00" arrival="693.00" arrivalLane="-469966399#4_0" arrivalPos="43.80" arrivalSpeed="5.25" duration="253.00" routeLength="787.27" waitingTime="97.00" waitingCount="5" stopTime="0.00" timeLoss="133.68" rerouteNo="1" devices="tripinfo_car22 routing_car22" vType="my_car" speedFactor="1.11" vaporized=""/>
    <tripinfo id="emergency10" depart="600.00" departLane="469966399#4_0" departPos="6.60" departSpeed="0.00" departDelay="0.00" arrival="713.00" arrivalLane="1445927128_0" arrivalPos="12.02" arrivalSpeed="4.76" duration="113.00" routeLength="362.93" waitingTime="32.00" waitingCount="3" stopTime="0.00" timeLoss="46.89" rerouteNo="1" devices="tripinfo_emergency10 routing_emergency10" vType="my_emergency" speedFactor="1.00" vaporized=""/>
    <tripinfo id="car25" depart="500.00" departLane="-475071113#0_0" departPos="0.20" departSpeed="0.00" departDelay="0.00" arrival="734.00" arrivalLane="-469966399#13_0" arrivalPos="26.91" arrivalSpeed="4.21" duration="234.00" routeLength="610.61" waitingTime="25.00" waitingCount="4" stopTime="0.00" timeLoss="77.33" rerouteNo="1" devices="tripinfo_car25 routing_car25" vType="my_car" speedFactor="0.96" vaporized=""/>
    <tripinfo id="bike11" depart="550.00" departLane="-469966400#2_0" departPos="1.70" departSpeed="0.00" departDelay="0.00" arrival="748.00" arrivalLane="-469966399#0_0" arrivalPos="42.26" arrivalSpeed="4.93" duration="198.00" routeLength="871.50" waitingTime="11.00" waitingCount="2" stopTime="0.00" timeLoss="32.03" rerouteNo="1" devices="tripinfo_bike11 routing_bike11" vType="my_bike" speedFactor="0.95" vaporized=""/>
    <tripinfo id="car19" depart="381.00" departLane="475071113#1_0" departPos="5.10" departSpeed="0.00" departDelay="1.00" arrival="756.00" arrivalLane="1445926307_0" arrivalPos="42.90" arrivalSpeed="0.95" duration="375.00" routeLength="840.59" waitingTime="79.00" waitingCount="5" stopTime="0.00" timeLoss="144.88" rerouteNo="1" devices="tripinfo_car19 routing_car19" vType="my_car" speedFactor="0.78" vaporized=""/>
    <tripinfo id="car34" depart="680.00" departLane="-469966399#9_0" departPos="5.10" departSpeed="0.00" departDelay="0.00" arrival="756.00" arrivalLane="-469966399#7_0" arrivalPos="130.08" arrivalSpeed="4.30" duration="76.00" routeLength="274.77" waitingTime="3.00" waitingCount="1" stopTime="0.00" timeLoss="17.40" rerouteNo="1" devices="tripinfo_car34 routing_car34" vType="my_car" speedFactor="0.85" vaporized=""/>
    <tripinfo id="emergency9" depart="540.00" departLane="469966399#4_0" departPos="6.60" departSpeed="0.00" departDelay="0.00" arrival="774.00" arrivalLane="-1018228073#0_0" arrivalPos="2039.58" arrivalSpeed="21.67" duration="234.00" routeLength="2495.28" waitingTime="56.00" waitingCount="2" stopTime="0.00" timeLoss="78.06" rerouteNo="1" devices="tripinfo_emergency9 routing_emergency9" vType="my_emergency" speedFactor="1.00" vaporized=""/>
    <tripinfo id="car32" depart="640.00" departLane="469966400#4_0" departPos="5.10" departSpeed="0.00" departDelay="0.00" arrival="818.00" arrivalLane="469966399#6_0" arrivalPos="135.33" arrivalSpeed="4.92" duration="178.00" routeLength="630.91" waitingTime="38.00" waitingCount="2" stopTime="0.00" timeLoss="61.44" rerouteNo="1" devices="tripinfo_car32 routing_car32" vType="my_car" speedFactor="0.98" vaporized=""/>
    <tripinfo id="bike7" depart="350.00" departLane="1445927129_0" departPos="1.70" departSpeed="0.00" departDelay="0.00" arrival="819.00" arrivalLane="1445926305#1_0" arrivalPos="77.34" arrivalSpeed="4.73" duration="469.00" routeLength="814.57" waitingTime="177.00" waitingCount="8" stopTime="0.00" timeLoss="246.88" rerouteNo="1" devices="tripinfo_bike7 routing_bike7" vType="my_bike" speedFactor="0.90" vaporized=""/>
    <tripinfo id="car28" depart="560.00" departLane="-1445927128_0" departPos="5.10" departSpeed="0.00" departDelay="0.00" arrival="827.00" arrivalLane="469966399#14_0" arrivalPos="308.45" arrivalSpeed="5.93" duration="267.00" routeLength="1039.75" waitingTime="29.00" waitingCount="3" stopTime="0.00" timeLoss="75.72" rerouteNo="1" devices="tripinfo_car28 routing_car28" vType="my_car" speedFactor="1.19" vaporized=""/>
    <tripinfo id="car39" depart="780.00" departLane="-469966399#4_0" departPos="5.10" departSpeed="0.00" departDelay="0.00" arrival="827.00" arrivalLane="-469966399#5_0" arrivalPos="47.27" arrivalSpeed="5.41" duration="47.00" routeLength="202.15" waitingTime="2.00" waitingCount="2" stopTime="0.00" timeLoss="12.86" rerouteNo="1" devices="tripinfo_car39 routing_car39" vType="my_car" speedFactor="1.11" vaporized=""/>
    <tripinfo id="emergency12" depart="720.00" departLane="798234860#0_0" departPos="6.60" departSpeed="0.00" departDelay="0.00" arrival="837.00" arrivalLane="-798234860#0_0" arrivalPos="260.77" arrivalSpeed="4.51" duration="117.00" routeLength="512.99" waitingTime="8.00" waitingCount="1" stopTime="0.00" timeLoss="23.86" rerouteNo="0" devices="tripinfo_emergency12 routing_emergency12" vType="my_emergency" speedFactor="1.00" vaporized=""/>
    <tripinfo id="car33" depart="660.00" departLane="-469966399#13_0" departPos="5.10" departSpeed="0.00" departDelay="0.00" arrival="843.00" arrivalLane="-1445926303#2_0" arrivalPos="206.67" arrivalSpeed="11.66" duration="183.00" routeLength="629.02" waitingTime="96.00" waitingCount="4" stopTime="0.00" timeLoss="116.49" rerouteNo="1" devices="tripinfo_car33 routing_car33" vType="my_car" speedFactor="0.90" vaporized=""/>
    <tripinfo id="bike12" depart="600.00" departLane="695769603_0" departPos="1.70" departSpeed="0.00" departDelay="0.00" arrival="843.00" arrivalLane="-475071113#0_0" arrivalPos="0.20" arrivalSpeed="3.76" duration="243.00" routeLength="723.73" waitingTime="70.00" waitingCount="4" stopTime="0.00" timeLoss="101.85" rerouteNo="1" devices="tripinfo_bike12 routing_bike12" vType="my_bike" speedFactor="0.99" vaporized=""/>
    <tripinfo id="car35" depart="700.00" departLane="-469966399#11_0" departPos="5.10" departSpeed="0.00" departDelay="0.00" arrival="868.00" arrivalLane="695769583_0" arrivalPos="46.32" arrivalSpeed="12.70" duration="168.00" routeLength="662.32" waitingTime="22.00" waitingCount="2" stopTime="0.00" timeLoss="45.43" rerouteNo="1" devices="tripinfo_car35 routing_car35" vType="my_car" speedFactor="0.93" vaporized=""/>
    <tripinfo id="bike13" depart="650.00" departLane="-1445926305#1_0" departPos="1.70" departSpeed="0.00" departDelay="0.00" arrival="869.00" arrivalLane="-1445926306#1_0" arrivalPos="17.52" arrivalSpeed="5.29" duration="219.00" routeLength="290.22" waitingTime="155.00" waitingCount="1" stopTime="0.00" timeLoss="166.15" rerouteNo="1" devices="tripinfo_bike13 routing_bike13" vType="my_bike" speedFactor="1.03" vaporized=""/>
    <tripinfo id="car30" depart="600.00" departLane="798234860#0_0" departPos="5.10" departSpeed="0.00" departDelay="0.00" arrival="874.00" arrivalLane="1445927128_0" arrivalPos="12.02" arrivalSpeed="4.85" duration="274.00" routeLength="1156.19" waitingTime="22.00" waitingCount="3" stopTime="0.00" timeLoss="57.36" rerouteNo="1" devices="tripinfo_car30 routing_car30" vType="my_car" speedFactor="0.96" vaporized=""/>
    <tripinfo id="car37" depart="740.00" departLane="1445927130_0" departPos="5.10" departSpeed="0.00" departDelay="0.00" arrival="876.00" arrivalLane="-475071113#6_0" arrivalPos="4.98" arrivalSpeed="4.50" duration="136.00" routeLength="479.09" waitingTime="40.00" waitingCount="2" stopTime="0.00" timeLoss="59.23" rerouteNo="1" devices="tripinfo_car37 routing_car37" vType="my_car" speedFactor="0.92" vaporized=""/>
    <tripinfo id="emergency6" depart="360.00" departLane="-1018228073#1_0" departPos="6.60" departSpeed="0.00" departDelay="0.00" arrival="897.00" arrivalLane="-469966399#12_0" arrivalPos="51.54" arrivalSpeed="5.50" duration="537.00" routeLength="6092.47" waitingTime="46.00" waitingCount="5" stopTime="0.00" timeLoss="110.65" rerouteNo="1" devices="tripinfo_emergency6 routing_emergency6" vType="my_emergency" speedFactor="1.00" vaporized=""/>
    <tripinfo id="bus10" depart="800.00" departLane="469966399#4_0" departPos="12.10" departSpeed="0.00" departDelay="0.00" arrival="905.00" arrivalLane="1445927128_0" arrivalPos="12.02" arrivalSpeed="5.48" duration="105.00" routeLength="357.43" waitingTime="22.00" waitingCount="3" stopTime="0.00" timeLoss="39.76" rerouteNo="1" devices="tripinfo_bus10 routing_bus10" vType="my_bus" speedFactor="1.00" vaporized=""/>