<?xml version="1.0" encoding="UTF-8"?>

<!-- generated on 2026-04-09T22:49:53.307905+05:30 by Eclipse SUMO sumo 1.25.0
<sumoConfiguration xmlns:xsi="http://www.w3.org/2001/XMLSchema-instance" xsi:noNamespaceSchemaLocation="http://sumo.dlr.de/xsd/sumoConfiguration.xsd">

    <input>
        <net-file value="env_iiser/new/map.net.xml"/>
        <route-files value="env_iiser/new/vtypes.add.xml,env_iiser/new/cars.rou.xml,env_iiser/new/buses.rou.xml,env_iiser/new/bikes.rou.xml,env_iiser/new/ambulance.rou.xml"/>
    </input>

    <output>
        <tripinfo-output value="results/rl_tripinfo.xml"/>
    </output>

    <processing>
        <time-to-teleport value="-1"/>
        <waiting-time-memory value="1000"/>
        <max-depart-delay value="-1"/>
    </processing>

    <traci_server>
        <remote-port value="44459"/>
    </traci_server>

    <random_number>
        <random value="true"/>
    </random_number>

</sumoConfiguration>
-->

<tripinfos xmlns:xsi="http://www.w3.org/2001/XMLSchema-instance" xsi:noNamespaceSchemaLocation="http://sumo.dlr.de/xsd/tripinfo_file.xsd">
    <tripinfo id="car1" depart="20.00" departLane="-469966399#5_0" departPos="5.10" departSpeed="0.00" departDelay="0.00" arrival="57.00" arrivalLane="-469966399#3_0" arrivalPos="54.63" arrivalSpeed="4.84" duration="37.00" routeLength="164.17" waitingTime="0.00" waitingCount="0" stopTime="0.00" timeLoss="4.84" rerouteNo="1" devices="tripinfo_car1 routing_car1" vType="my_car" speedFactor="0.92" vaporized=""/>
    <tripinfo id="bike1" depart="50.00" departLane="-469966399#5_0" departPos="1.70" departSpeed="0.00" departDelay="0.00" arrival="84.00" arrivalLane="-469966399#3_0" arrivalPos="54.63" arrivalSpeed="5.23" duration="34.00" routeLength="167.57" waitingTime="0.00" waitingCount="0" stopTime="0.00" timeLoss="3.52" rerouteNo="1" devices="tripinfo_bike1 routing_bike1" vType="my_bike" speedFactor="1.04" vaporized=""/>
    <tripinfo id="car2" depart="40.00" departLane="469966399#3_0" departPos="5.10" departSpeed="0.00" departDelay="0.00" arrival="125.00" arrivalLane="469966399#1_0" arrivalPos="144.22" arrivalSpeed="5.52" duration="85.00" routeLength="505.06" waitingTime="0.00" waitingCount="0" stopTime="0.00" timeLoss="11.24" rerouteNo="1" devices="tripinfo_car2 routing_car2" vType="my_car" speedFactor="1.03" vaporized=""/>
    <tripinfo id="emergency2" depart="120.00" departLane="1445927129_0" departPos="6.60" departSpeed="0.00" departDelay="0.00" arrival="135.00" arrivalLane="1445927128_0" arrivalPos="12.02" arrivalSpeed="4.60" duration="15.00" routeLength="50.80" waitingTime="3.00" waitingCount="1" stopTime="0.00" timeLoss="5.81" rerouteNo="1" devices="tripinfo_emergency2 routing_emergency2" vType="my_emergency" speedFactor="1.00" vaporized=""/>
    <tripinfo id="car6" depart="120.00" departLane="-1445926303#0_0" departPos="5.10" departSpeed="0.00" departDelay="0.00" arrival="158.00" arrivalLane="-469966399#12_0" arrivalPos="51.54" arrivalSpeed="5.01" duration="38.00" routeLength="192.20" waitingTime="0.00" waitingCount="0" stopTime="0.00" timeLoss="7.56" rerouteNo="1" devices="tripinfo_car6 routing_car6" vType="my_car" speedFactor="0.99" vaporized=""/>
    <tripinfo id="car5" depart="100.00" departLane="-469966399#12_0" departPos="5.10" departSpeed="0.00" departDelay="0.00" arrival="162.00" arrivalLane="1445926303#3_0" arrivalPos="15.38" arrivalSpeed="12.36" duration="62.00" routeLength="410.37" waitingTime="6.00" waitingCount="2" stopTime="0.00" timeLoss="18.67" rerouteNo="1" devices="tripinfo_car5 routing_car5" vType="my_car" speedFactor="0.89" vaporized=""/>
    <tripinfo id="emergency1" depart="60.00" departLane="-1445927128_0" departPos="6.60" departSpeed="0.00" departDelay="0.00" arrival="164.00" arrivalLane="-469966399#5_0" arrivalPos="47.27" arrivalSpeed="4.59" duration="104.00" routeLength="439.58" waitingTime="6.00" waitingCount="2" stopTime="0.00" timeLoss="24.53" rerouteNo="1" devices="tripinfo_emergency1 routing_emergency1" vType="my_emergency" speedFactor="1.00" vaporized=""/>
    <tripinfo id="bus2" depart="160.00" departLane="1445927129_0" departPos="12.10" departSpeed="0.00" departDelay="0.00" arrival="177.00" arrivalLane="1445927128_0" arrivalPos="12.02" arrivalSpeed="5.21" duration="17.00" routeLength="45.30" waitingTime="2.00" waitingCount="1" stopTime="0.00" timeLoss="8.45" rerouteNo="1" devices="tripinfo_bus2 routing_bus2" vType="my_bus" speedFactor="1.00" vaporized=""/>
    <tripinfo id="bus1" depart="80.00" departLane="-1445927128_0" departPos="12.02" departSpeed="0.00" departDelay="0.00" arrival="180.00" arrivalLane="-469966399#5_0" arrivalPos="47.27" arrivalSpeed="5.43" duration="100.00" routeLength="434.16" waitingTime="10.00" waitingCount="2" stopTime="0.00" timeLoss="20.58" rerouteNo="1" devices="tripinfo_bus1 routing_bus1" vType="my_bus" speedFactor="1.00" vaporized=""/>
    <tripinfo id="car8" depart="160.00" departLane="-469966399#12_0" departPos="5.10" departSpeed="0.00" departDelay="0.00" arrival="205.00" arrivalLane="1445926308#0_0" arrivalPos="36.96" arrivalSpeed="11.95" duration="45.00" routeLength="323.24" waitingTime="0.00" waitingCount="0" stopTime="0.00" timeLoss="7.93" rerouteNo="1" devices="tripinfo_car8 routing_car8" vType="my_car" speedFactor="0.89" vaporized=""/>
    <tripinfo id="bike2" depart="100.00" departLane="469966399#3_0" departPos="1.70" departSpeed="0.00" departDelay="0.00" arrival="214.00" arrivalLane="469966399#1_0" arrivalPos="144.22" arrivalSpeed="5.27" duration="114.00" routeLength="508.46" waitingTime="9.00" waitingCount="1" stopTime="0.00" timeLoss="20.55" rerouteNo="1" devices="tripinfo_bike2 routing_bike2" vType="my_bike" speedFactor="1.04" vaporized=""/>
    <tripinfo id="car0" depart="0.00" departLane="1445927127_0" departPos="5.10" departSpeed="0.00" departDelay="0.00" arrival="227.00" arrivalLane="-1445926303#1_0" arrivalPos="16.77" arrivalSpeed="7.26" duration="227.00" routeLength="778.72" waitingTime="0.00" waitingCount="0" stopTime="0.00" timeLoss="41.26" rerouteNo="1" devices="tripinfo_car0 routing_car0" vType="my_car" speedFactor="0.77" vaporized=""/>
    <tripinfo id="car3" depart="60.00" departLane="475071113#4_0" departPos="1.83" departSpeed="0.00" departDelay="0.00" arrival="231.00" arrivalLane="-1445926306#0_0" arrivalPos="42.86" arrivalSpeed="15.05" duration="171.00" routeLength="872.35" waitingTime="9.00" waitingCount="2" stopTime="0.00" timeLoss="31.18" rerouteNo="1" devices="tripinfo_car3 routing_car3" vType="my_car" speedFactor="1.12" vaporized=""/>
    <tripinfo id="bike0" depart="1.00" departLane="1445927127_0" departPos="1.70" departSpeed="0.00" departDelay="1.00" arrival="232.00" arrivalLane="-1445926303#1_0" arrivalPos="16.77" arrivalSpeed="5.42" duration="231.00" routeLength="782.12" waitingTime="0.00" waitingCount="0" stopTime="0.00" timeLoss="77.96" rerouteNo="1" devices="tripinfo_bike0 routing_bike0" vType="my_bike" speedFactor="1.06" vaporized=""/>
    <tripinfo id="car4" depart="80.00" departLane="-475071113#5_0" departPos="5.00" departSpeed="0.00" departDelay="0.00" arrival="292.00" arrivalLane="-1445926303#2_0" arrivalPos="206.67" arrivalSpeed="14.24" duration="212.00" routeLength="1246.00" waitingTime="10.00" waitingCount="2" stopTime="0.00" timeLoss="43.46" rerouteNo="1" devices="tripinfo_car4 routing_car4" vType="my_car" speedFactor="1.08" vaporized=""/>
    <tripinfo id="car13" depart="260.00" departLane="-1445926305#1_0" departPos="5.10" departSpeed="0.00" departDelay="0.00" arrival="296.00" arrivalLane="-1445926306#1_0" arrivalPos="17.52" arrivalSpeed="15.50" duration="36.00" routeLength="286.82" waitingTime="3.00" waitingCount="1" stopTime="0.00" timeLoss="14.15" rerouteNo="1" devices="tripinfo_car13 routing_car13" vType="my_car" speedFactor="1.15" vaporized=""/>
    <tripinfo id="emergency5" depart="300.00" departLane="-1445926308#0_0" departPos="6.60" departSpeed="0.00" departDelay="0.00" arrival="323.00" arrivalLane="1445926303#4_0" arrivalPos="17.00" arrivalSpeed="13.67" duration="23.00" routeLength="219.48" waitingTime="0.00" waitingCount="0" stopTime="0.00" timeLoss="5.58" rerouteNo="1" devices="tripinfo_emergency5 routing_emergency5" vType="my_emergency" speedFactor="1.00" vaporized=""/>
    <tripinfo id="car7" depart="140.00" departLane="1445927129_0" departPos="5.10" departSpeed="0.00" departDelay="0.00" arrival="328.00" arrivalLane="1445926305#1_0" arrivalPos="77.34" arrivalSpeed="14.91" duration="188.00" routeLength="930.26" waitingTime="4.00" waitingCount="2" stopTime="0.00" timeLoss="41.08" rerouteNo="1" devices="tripinfo_car7 routing_car7" vType="my_car" speedFactor="1.09" vaporized=""/>
    <tripinfo id="car10" depart="200.00" departLane="469966400#0_0" departPos="5.10" departSpeed="0.00" departDelay="0.00" arrival="333.00" arrivalLane="469966399#11_0" arrivalPos="18.52" arrivalSpeed="4.81" duration="133.00" routeLength="520.77" waitingTime="6.00" waitingCount="1" stopTime="0.00" timeLoss="28.44" rerouteNo="1" devices="tripinfo_car10 routing_car10" vType="my_car" speedFactor="0.99" vaporized=""/>
    <tripinfo id="bike5" depart="250.00" departLane="-469966399#12_0" departPos="1.70" departSpeed="0.00" departDelay="0.00" arrival="342.00" arrivalLane="1445926303#3_0" arrivalPos="15.38" arrivalSpeed="5.42" duration="92.00" routeLength="413.77" waitingTime="6.00" waitingCount="1" stopTime="0.00" timeLoss="16.73" rerouteNo="1" devices="tripinfo_bike5 routing_bike5" vType="my_bike" speedFactor="1.17" vaporized=""/>
    <tripinfo id="bus0" depart="0.00" departLane="1445926303#3_0" departPos="12.10" departSpeed="0.00" departDelay="0.00" arrival="344.00" arrivalLane="-1018228073#0_0" arrivalPos="2039.58" arrivalSpeed="14.55" duration="344.00" routeLength="3276.93" waitingTime="0.00" waitingCount="0" stopTime="0.00" timeLoss="28.94" rerouteNo="1" devices="tripinfo_bus0 routing_bus0" vType="my_bus" speedFactor="1.00" vaporized=""/>
    <tripinfo id="bike3" depart="151.00" departLane="475071113#4_0" departPos="1.70" departSpeed="0.00" departDelay="1.00" arrival="344.00" arrivalLane="-1445926306#0_0" arrivalPos="42.86" arrivalSpeed="5.50" duration="193.00" routeLength="872.48" waitingTime="0.00" waitingCount="0" stopTime="0.00" timeLoss="25.41" rerouteNo="1" devices="tripinfo_bike3 routing_bike3" vType="my_bike" speedFactor="1.11" vaporized=""/>
    <tripinfo id="emergency0" depart="4.00" departLane="1445926303#3_0" departPos="6.60" departSpeed="0.00" departDelay="4.00" arrival="346.00" arrivalLane="-1018228073#0_0" arrivalPos="2039.58" arrivalSpeed="17.89" duration="342.00" routeLength="3282.43" waitingTime="0.00" waitingCount="0" stopTime="0.00" timeLoss="71.19" rerouteNo="1" devices="tripinfo_emergency0 routing_emergency0" vType="my_emergency" speedFactor="1.00" vaporized=""/>
    <tripinfo id="bike6" depart="300.00" departLane="-1445926303#0_0" departPos="1.70" departSpeed="0.00" departDelay="0.00" arrival="349.00" arrivalLane="-469966399#12_0" arrivalPos="51.54" arrivalSpeed="5.27" duration="49.00" routeLength="195.60" waitingTime="3.00" waitingCount="1" stopTime="0.00" timeLoss="12.71" rerouteNo="1" devices="tripinfo_bike6 routing_bike6" vType="my_bike" speedFactor="0.98" vaporized=""/>
    <tripinfo id="car11" depart="220.00" departLane="-469966400#2_0" departPos="5.10" departSpeed="0.00" departDelay="0.00" arrival="367.00" arrivalLane="-469966399#0_0" arrivalPos="42.26" arrivalSpeed="6.05" duration="147.00" routeLength="877.12" waitingTime="0.00" waitingCount="0" stopTime="0.00" timeLoss="17.59" rerouteNo="1" devices="tripinfo_car11 routing_car11" vType="my_car" speedFactor="1.10" vaporized=""/>
    <tripinfo id="emergency3" depart="180.00" departLane="475071113#5_0" departPos="5.00" departSpeed="0.00" departDelay="0.00" arrival="384.00" arrivalLane="-1445926305#1_0" arrivalPos="83.00" arrivalSpeed="13.01" duration="204.00" routeLength="974.30" waitingTime="3.00" waitingCount="1" stopTime="0.00" timeLoss="44.64" rerouteNo="1" devices="tripinfo_emergency3 routing_emergency3" vType="my_emergency" speedFactor="1.00" vaporized=""/>
    <tripinfo id="car12" depart="240.00" departLane="695769603_0" departPos="5.10" departSpeed="0.00" departDelay="0.00" arrival="403.00" arrivalLane="-475071113#0_0" arrivalPos="0.20" arrivalSpeed="3.27" duration="163.00" routeLength="720.33" waitingTime="0.00" waitingCount="0" stopTime="0.00" timeLoss="22.02" rerouteNo="1" devices="tripinfo_car12 routing_car12" vType="my_car" speedFactor="0.97" vaporized=""/>
    <tripinfo id="bus5" depart="400.00" departLane="-1445926308#0_0" departPos="12.10" departSpeed="0.00" departDelay="0.00" arrival="425.00" arrivalLane="1445926303#4_0" arrivalPos="17.00" arrivalSpeed="13.59" duration="25.00" routeLength="213.98" waitingTime="0.00" waitingCount="0" stopTime="0.00" timeLoss="7.60" rerouteNo="1" devices="tripinfo_bus5 routing_bus5" vType="my_bus" speedFactor="1.00" vaporized=""/>
    <tripinfo id="car9" depart="180.00" departLane="469966400#1_0" departPos="5.10" departSpeed="0.00" departDelay="0.00" arrival="446.00" arrivalLane="-1018228073#0_0" arrivalPos="2039.58" arrivalSpeed="19.44" duration="266.00" routeLength="2820.23" waitingTime="0.00" waitingCount="0" stopTime="0.00" timeLoss="26.29" rerouteNo="1" devices="tripinfo_car9 routing_car9" vType="my_car" speedFactor="0.90" vaporized=""/>
    <tripinfo id="bus3" depart="240.00" departLane="475071113#5_0" departPos="5.00" departSpeed="0.00" departDelay="0.00" arrival="449.00" arrivalLane="-1445926305#1_0" arrivalPos="83.00" arrivalSpeed="12.60" duration="209.00" routeLength="974.30" waitingTime="0.00" waitingCount="0" stopTime="0.00" timeLoss="49.51" rerouteNo="1" devices="tripinfo_bus3 routing_bus3" vType="my_bus" speedFactor="1.00" vaporized=""/>
    <tripinfo id="emergency7" depart="420.00" departLane="1445926305#0_0" departPos="6.60" departSpeed="0.00" departDelay="0.00" arrival="449.00" arrivalLane="1445926303#4_0" arrivalPos="17.00" arrivalSpeed="13.44" duration="29.00" routeLength="298.25" waitingTime="0.00" waitingCount="0" stopTime="0.00" timeLoss="5.29" rerouteNo="1" devices="tripinfo_emergency7 routing_emergency7" vType="my_emergency" speedFactor="1.00" vaporized=""/>
    <tripinfo id="car20" depart="400.00" departLane="469966399#12_0" departPos="5.10" departSpeed="0.00" departDelay="0.00" arrival="471.00" arrivalLane="-1445926303#3_0" arrivalPos="14.47" arrivalSpeed="8.98" duration="71.00" routeLength="501.11" waitingTime="1.00" waitingCount="1" stopTime="0.00" timeLoss="19.29" rerouteNo="1" devices="tripinfo_car20 routing_car20" vType="my_car" speedFactor="0.91" vaporized=""/>
    <tripinfo id="car18" depart="362.00" departLane="469966400#3_0" departPos="5.10" departSpeed="0.00" departDelay="2.00" arrival="472.00" arrivalLane="1445926311_0" arrivalPos="46.79" arrivalSpeed="1.23" duration="110.00" routeLength="374.40" waitingTime="0.00" waitingCount="0" stopTime="0.00" timeLoss="38.59" rerouteNo="1" devices="tripinfo_car18 routing_car18" vType="my_car" speedFactor="1.16" vaporized=""/>
    <tripinfo id="car14" depart="280.00" departLane="475071113#0_0" departPos="0.20" departSpeed="0.00" departDelay="0.00" arrival="474.00" arrivalLane="1445926308#1_0" arrivalPos="180.48" arrivalSpeed="14.62" duration="194.00" routeLength="1017.18" waitingTime="8.00" waitingCount="2" stopTime="0.00" timeLoss="52.02" rerouteNo="1" devices="tripinfo_car14 routing_car14" vType="my_car" speedFactor="1.07" vaporized=""/>
    <tripinfo id="bike8" depart="400.00" departLane="-469966399#12_0" departPos="1.70" departSpeed="0.00" departDelay="0.00" arrival="480.00" arrivalLane="1445926308#0_0" arrivalPos="36.96" arrivalSpeed="4.99" duration="80.00" routeLength="326.64" waitingTime="10.00" waitingCount="2" stopTime="0.00" timeLoss="20.35" rerouteNo="1" devices="tripinfo_bike8 routing_bike8" vType="my_bike" speedFactor="1.13" vaporized=""/>
    <tripinfo id="car15" depart="304.00" departLane="469966400#1_0" departPos="5.10" departSpeed="0.00" departDelay="4.00" arrival="504.00" arrivalLane="469966399#14_0" arrivalPos="308.45" arrivalSpeed="5.61" duration="200.00" routeLength="870.67" waitingTime="3.00" waitingCount="1" stopTime="0.00" timeLoss="40.48" rerouteNo="1" devices="tripinfo_car15 routing_car15" vType="my_car" speedFactor="1.04" vaporized=""/>
    <tripinfo id="emergency4" depart="240.00" departLane="-469966399#9_0" departPos="6.60" departSpeed="0.00" departDelay="0.00" arrival="506.00" arrivalLane="-1018228073#0_0" arrivalPos="2039.58" arrivalSpeed="21.52" duration="266.00" routeLength="2959.74" waitingTime="0.00" waitingCount="0" stopTime="0.00" timeLoss="25.98" rerouteNo="1" devices="tripinfo_emergency4 routing_emergency4" vType="my_emergency" speedFactor="1.00" vaporized=""/>
    <tripinfo id="car16" depart="321.00" departLane="1445926304_0" departPos="5.10" departSpeed="0.00" departDelay="1.00" arrival="508.00" arrivalLane="695769604_0" arrivalPos="81.42" arrivalSpeed="2.40" duration="187.00" routeLength="868.55" waitingTime="0.00" waitingCount="0" stopTime="0.00" timeLoss="32.55" rerouteNo="1" devices="tripinfo_car16 routing_car16" vType="my_car" speedFactor="0.91" vaporized=""/>
    <tripinfo id="car17" depart="340.00" departLane="-475071113#0_0" departPos="0.20" departSpeed="0.00" departDelay="0.00" arrival="520.00" arrivalLane="1445926305#2_0" arrivalPos="106.06" arrivalSpeed="12.99" duration="180.00" routeLength="896.04" waitingTime="0.00" waitingCount="0" stopTime="0.00" timeLoss="29.38" rerouteNo="1" devices="tripinfo_car17 routing_car17" vType="my_car" speedFactor="0.94" vaporized=""/>
    <tripinfo id="car24" depart="480.00" departLane="1445927127_0" departPos="5.10" departSpeed="0.00" departDelay="0.00" arrival="523.00" arrivalLane="-475071113#2_0" arrivalPos="60.00" arrivalSpeed="4.50" duration="43.00" routeLength="205.03" waitingTime="0.00" waitingCount="0" stopTime="0.00" timeLoss="5.23" rerouteNo="1" devices="tripinfo_car24 routing_car24" vType="my_car" speedFactor="1.00" vaporized=""/>
    <tripinfo id="bike4" depart="200.00" departLane="-475071113#5_0" departPos="1.70" departSpeed="0.00" departDelay="0.00" arrival="535.00" arrivalLane="-1445926303#2_0" arrivalPos="206.67" arrivalSpeed="4.00" duration="335.00" routeLength="1225.56" waitingTime="0.00" waitingCount="0" stopTime="0.00" timeLoss="29.78" rerouteNo="1" devices="tripinfo_bike4 routing_bike4" vType="my_bike" speedFactor="0.77" vaporized=""/>
    <tripinfo id="emergency8" depart="480.00" departLane="-1445926308#0_0" departPos="6.60" departSpeed="0.00" departDelay="0.00" arrival="562.00" arrivalLane="1445926307_0" arrivalPos="42.90" arrivalSpeed="1.30" duration="82.00" routeLength="404.51" waitingTime="0.00" waitingCount="0" stopTime="0.00" timeLoss="20.09" rerouteNo="1" devices="tripinfo_emergency8 routing_emergency8" vType="my_emergency" speedFactor="1.00" vaporized=""/>
    <tripinfo id="car23" depart="460.00" departLane="-1445926305#2_0" departPos="5.10" departSpeed="0.00" departDelay="0.00" arrival="586.00" arrivalLane="-469966399#8_0" arrivalPos="16.74" arrivalSpeed="3.46" duration="126.00" routeLength="579.76" waitingTime="0.00" waitingCount="0" stopTime="0.00" timeLoss="23.17" rerouteNo="1" devices="tripinfo_car23 routing_car23" vType="my_car" speedFactor="0.72" vaporized=""/>
    <tripinfo id="bus7" depart="560.00" departLane="1445926305#0_0" departPos="12.10" departSpeed="0.00" departDelay="0.00" arrival="593.00" arrivalLane="1445926303#4_0" arrivalPos="17.00" arrivalSpeed="13.89" duration="33.00" routeLength="292.75" waitingTime="0.00" waitingCount="0" stopTime="0.00" timeLoss="10.13" rerouteNo="1" devices="tripinfo_bus7 routing_bus7" vType="my_bus" speedFactor="1.00" vaporized=""/>
    <tripinfo id="car21" depart="420.00" departLane="-469966399#13_0" departPos="5.10" departSpeed="0.00" departDelay="0.00" arrival="607.00" arrivalLane="-469966400#0_0" arrivalPos="70.93" arrivalSpeed="4.01" duration="187.00" routeLength="832.15" waitingTime="0.00" waitingCount="0" stopTime="0.00" timeLoss="28.80" rerouteNo="1" devices="tripinfo_car21 routing_car21" vType="my_car" speedFactor="0.95" vaporized=""/>
    <tripinfo id="bike10" depart="500.00" departLane="469966400#0_0" departPos="1.70" departSpeed="0.00" departDelay="0.00" arrival="612.00" arrivalLane="469966399#11_0" arrivalPos="18.52" arrivalSpeed="5.18" duration="112.00" routeLength="524.17" waitingTime="0.00" waitingCount="0" stopTime="0.00" timeLoss="9.73" rerouteNo="1" devices="tripinfo_bike10 routing_bike10" vType="my_bike" speedFactor="1.12" vaporized=""/>
    <tripinfo id="bus4" depart="320.00" departLane="-469966399#9_0" departPos="12.10" departSpeed="0.00" departDelay="0.00" arrival="623.00" arrivalLane="-1018228073#0_0" arrivalPos="2039.58" arrivalSpeed="14.59" duration="303.00" routeLength="2954.24" waitingTime="0.00" waitingCount="0" stopTime="0.00" timeLoss="20.02" rerouteNo="1" devices="tripinfo_bus4 routing_bus4" vType="my_bus" speedFactor="1.00" vaporized=""/>
    <tripinfo id="bike7" depart="350.00" departLane="1445927129_0" departPos="1.70" departSpeed="0.00" departDelay="0.00" arrival="623.00" arrivalLane="1445926305#1_0" arrivalPos="77.34" arrivalSpeed="3.89" duration="273.00" routeLength="933.66" waitingTime="2.00" waitingCount="1" stopTime="0.00" timeLoss="31.75" rerouteNo="1" devices="tripinfo_bike7 routing_bike7" vType="my_bike" speedFactor="0.75" vaporized=""/>
    <tripinfo id="car22" depart="440.00" departLane="-1445926305#0_0" departPos="5.10" departSpeed="0.00" departDelay="0.00" arrival="626.00" arrivalLane="-469966399#4_0" arrivalPos="43.80" arrivalSpeed="4.65" duration="186.00" routeLength="787.27" waitingTime="5.00" waitingCount="1" stopTime="0.00" timeLoss="35.50" rerouteNo="1" devices="tripinfo_car22 routing_car22" vType="my_car" speedFactor="0.88" vaporized=""/>
    <tripinfo id="car19" depart="380.00" departLane="475071113#1_0" departPos="5.10" departSpeed="0.00" departDelay="0.00" arrival="639.00" arrivalLane="1445926307_0" arrivalPos="42.90" arrivalSpeed="0.89" duration="259.00" routeLength="840.59" waitingTime="0.00" waitingCount="0" stopTime="0.00" timeLoss="71.24" rerouteNo="1" devices="tripinfo_car19 routing_car19" vType="my_car" speedFactor="0.95" vaporized=""/>
    <tripinfo id="car29" depart="580.00" departLane="-1445927127_0" departPos="5.10" departSpeed="0.00" departDelay="0.00" arrival="643.00" arrivalLane="-475071113#4_0" arrivalPos="3.52" arrivalSpeed="4.67" duration="63.00" routeLength="269.34" waitingTime="0.00" waitingCount="0" stopTime="0.00" timeLoss="9.39" rerouteNo="1" devices="tripinfo_car29 routing_car29" vType="my_car" speedFactor="0.92" vaporized=""/>
    <tripinfo id="car25" depart="500.00" departLane="-475071113#0_0" departPos="0.20" departSpeed="0.00" departDelay="0.00" arrival="670.00" arrivalLane="-469966399#13_0" arrivalPos="26.91" arrivalSpeed="5.13" duration="170.00" routeLength="610.61" waitingTime="0.00" waitingCount="0" stopTime="0.00" timeLoss="33.09" rerouteNo="1" devices="tripinfo_car25 routing_car25" vType="my_car" speedFactor="1.10" vaporized=""/>
    <tripinfo id="emergency10" depart="600.00" departLane="469966399#4_0" departPos="6.60" departSpeed="0.00" departDelay="0.00" arrival="685.00" arrivalLane="1445927128_0" arrivalPos="12.02" arrivalSpeed="5.51" duration="85.00" routeLength="362.93" waitingTime="6.00" waitingCount="1" stopTime="0.00" timeLoss="19.18" rerouteNo="1" devices="tripinfo_emergency10 routing_emergency10" vType="my_emergency" speedFactor="1.00" vaporized=""/>
    <tripinfo id="bike13" depart="653.00" departLane="-1445926305#1_0" departPos="1.70" departSpeed="0.00" departDelay="3.00" arrival="711.00" arrivalLane="-1445926306#1_0" arrivalPos="17.52" arrivalSpeed="5.22" duration="58.00" routeLength="290.22" waitingTime="0.00" waitingCount="0" stopTime="0.00" timeLoss="5.13" rerouteNo="1" devices="tripinfo_bike13 routing_bike13" vType="my_bike" speedFactor="1.01" vaporized=""/>
    <tripinfo id="car26" depart="520.00" departLane="-469966399#4_0" departPos="5.10" departSpeed="0.00" departDelay="0.00" arrival="717.00" arrivalLane="527232518#1_0" arrivalPos="18.05" arrivalSpeed="8.01" duration="197.00" routeLength="576.11" waitingTime="7.00" waitingCount="1" stopTime="0.00" timeLoss="48.73" rerouteNo="1" devices="tripinfo_car26 routing_car26" vType="my_car" speedFactor="0.75" vaporized=""/>
    <tripinfo id="bike11" depart="550.00" departLane="-469966400#2_0" departPos="1.70" departSpeed="0.00" departDelay="0.00" arrival="722.00" arrivalLane="-469966399#0_0" arrivalPos="42.26" arrivalSpeed="5.25" duration="172.00" routeLength="871.50" waitingTime="0.00" waitingCount="0" stopTime="0.00" timeLoss="12.64" rerouteNo="1" devices="tripinfo_bike11 routing_bike11" vType="my_bike" speedFactor="1.17" vaporized=""/>
    <tripinfo id="car31" depart="620.00" departLane="1445926305#1_0" departPos="5.10" departSpeed="0.00" departDelay="0.00" arrival="723.00" arrivalLane="469966399#10_0" arrivalPos="131.71" arrivalSpeed="4.78" duration="103.00" routeLength="534.79" waitingTime="1.00" waitingCount="1" stopTime="0.00" timeLoss="23.99" rerouteNo="1" devices="tripinfo_car31 routing_car31" vType="my_car" speedFactor="0.88" vaporized=""/>
    <tripinfo id="car33" depart="660.00" departLane="-469966399#13_0" departPos="5.10" departSpeed="0.00" departDelay="0.00" arrival="725.00" arrivalLane="-1445926303#2_0" arrivalPos="206.67" arrivalSpeed="16.15" duration="65.00" routeLength="644.00" waitingTime="2.00" waitingCount="1" stopTime="0.00" timeLoss="18.04" rerouteNo="1" devices="tripinfo_car33 routing_car33" vType="my_car" speedFactor="1.17" vaporized=""/>
    <tripinfo id="bus8" depart="640.00" departLane="-1445926308#0_0" departPos="12.10" departSpeed="0.00" departDelay="0.00" arrival="734.00" arrivalLane="1445926307_0" arrivalPos="42.90" arrivalSpeed="1.25" duration="94.00" routeLength="399.01" waitingTime="2.00" waitingCount="1" stopTime="0.00" timeLoss="32.89" rerouteNo="1" devices="tripinfo_bus8 routing_bus8" vType="my_bus" speedFactor="1.00" vaporized=""/>
    <tripinfo id="car34" depart="680.00" departLane="-469966399#9_0" departPos="5.10" departSpeed="0.00" departDelay="0.00" arrival="739.00" arrivalLane="-469966399#7_0" arrivalPos="130.08" arrivalSpeed="4.67" duration="59.00" routeLength="274.77" waitingTime="0.00" waitingCount="0" stopTime="0.00" timeLoss="8.86" rerouteNo="1" devices="tripinfo_car34 routing_car34" vType="my_car" speedFactor="1.00" vaporized=""/>
    <tripinfo id="bike12" depart="600.00" departLane="695769603_0" departPos="1.70" departSpeed="0.00" departDelay="0.00" arrival="756.00" arrivalLane="-475071113#0_0" arrivalPos="0.20" arrivalSpeed="3.52" duration="156.00" routeLength="723.73" waitingTime="0.00" waitingCount="0" stopTime="0.00" timeLoss="16.83" rerouteNo="1" devices="tripinfo_bike12 routing_bike12" vType="my_bike" speedFactor="1.03" vaporized=""/>
    <tripinfo id="car32" depart="640.00" departLane="469966400#4_0" departPos="5.10" departSpeed="0.00" departDelay="0.00" arrival="778.00" arrivalLane="469966399#6_0" arrivalPos="135.33" arrivalSpeed="4.18" duration="138.00" routeLength="630.91" waitingTime="0.00" waitingCount="0" stopTime="0.00" timeLoss="18.87" rerouteNo="1" devices="tripinfo_car32 routing_car32" vType="my_car" speedFactor="0.96" vaporized=""/>
    <tripinfo id="car27" depart="540.00" departLane="1445927129_0" departPos="5.10" departSpeed="0.00" departDelay="0.00" arrival="790.00" arrivalLane="1445926309_0" arrivalPos="22.96" arrivalSpeed="11.38" duration="250.00" routeLength="976.63" waitingTime="5.00" waitingCount="2" stopTime="0.00" timeLoss="52.26" rerouteNo="1" devices="tripinfo_car27 routing_car27" vType="my_car" speedFactor="0.83" vaporized=""/>
    <tripinfo id="car39" depart="780.00" departLane="-469966399#4_0" departPos="5.10" departSpeed="0.00" departDelay="0.00" arrival="822.00" arrivalLane="-469966399#5_0" arrivalPos="47.27" arrivalSpeed="4.46" duration="42.00" routeLength="202.15" waitingTime="0.00" waitingCount="0" stopTime="0.00" timeLoss="5.86" rerouteNo="1" devices="tripinfo_car39 routing_car39" vType="my_car" speedFactor="1.03" vaporized=""/>
    <tripinfo id="car35" depart="700.00" departLane="-469966399#11_0" departPos="5.10" departSpeed="0.00" departDelay="0.00" arrival="828.00" arrivalLane="695769583_0" arrivalPos="46.32" arrivalSpeed="13.69" duration="128.00" routeLength="662.32" waitingTime="0.00" waitingCount="0" stopTime="0.00" timeLoss="18.60" rerouteNo="1" devices="tripinfo_car35 routing_car35" vType="my_car" speedFactor="1.03" vaporized=""/>
    <tripinfo id="car37" depart="740.00" departLane="1445927130_0" departPos="5.10" departSpeed="0.00" departDelay="0.00" arrival="840.00" arrivalLane="-475071113#6_0" arrivalPos="4.98" arrivalSpeed="5.53" duration="100.00" routeLength="479.09" waitingTime="12.00" waitingCount="1" stopTime="0.00" timeLoss="29.97" rerouteNo="1" devices="tripinfo_car37 routing_car37" vType="my_car" speedFactor="1.01" vaporized=""/>
    <tripinfo id="emergency6" depart="360.00" departLane="-1018228073#1_0" departPos="6.60" departSpeed="0.00" departDelay="0.00" arrival="844.00" arrivalLane="-469966399#12_0" arrivalPos="51.54" arrivalSpeed="4.30" duration="484.00" routeLength="6092.47" waitingTime="0.00" waitingCount="0" stopTime="0.00" timeLoss="58.22" rerouteNo="1" devices="tripinfo_emergency6 routing_emergency6" vType="my_emergency" speedFactor="1.00" vaporized=""/>
    <tripinfo id="bus10" depart="800.00" departLane="469966399#4_0" departPos="12.10" departSpeed="0.00" departDelay="0.00" arrival="872.00" arrivalLane="1445927128_0" arrivalPos="12.02" arrivalSpeed="5.30" duration="72.00" routeLength="357.43" waitingTime="0.00" waitingCount="0" stopTime="0.00" timeLoss="6.95" rerouteNo="1" devices="tripinfo_bus10 routing_bus10" vType="my_bus" speedFactor="1.00" vaporized=""/>